 Gaussian 09, Revision D.01,
 Gaussian 09:  EM64L-G09RevD.01 24-Apr-2013

 -----------------------------------------------------------
 #p b3lyp/6-31g(d,p) scrf=(read,smd) empiricaldispersion=gd3
 -----------------------------------------------------------

 -------------------
 Title Card Required
 -------------------
 Symbolic Z-matrix:
 Charge = -1 Multiplicity = 1

                         Standard orientation:
 ---------------------------------------------------------------------
 Center     Atomic      Atomic             Coordinates (Angstroms)
 Number     Number       Type             X           Y           Z
 ---------------------------------------------------------------------
      1          6           0       -3.839584    3.420095   -1.233689
      2          6           0       -2.598433    3.377104   -0.332195
      3          7           0       -4.728983    2.403862   -1.148825
      4          6           0       -2.442955    2.245074    0.681187
      5          1           0       -1.726265    3.393208   -0.996106
      6          1           0       -2.595894    4.340709    0.192290
      7          8           0       -4.002585    4.384608   -1.986333
      8          6           0       -5.932169    2.450208   -1.961205
      9          1           0       -4.558869    1.572420   -0.562340
     10          1           0       -1.678517    2.529174    1.421449
     11          8           0       -2.023771    1.043857    0.041922
     12          1           0       -3.378226    2.060830    1.219490
     13          1           0       -5.687305    2.562901   -3.023214
     14          1           0       -6.566896    3.300005   -1.683135
     15          1           0       -6.489694    1.523056   -1.814196
     16          6           0       -2.964501   -0.201572    0.155581
     17          6           0       -2.743771   -0.891377   -1.187070
     18          8           0       -2.292601   -1.040100    1.133052
     19          8           0       -4.172593    0.144729    0.460630
     20          1           0       -1.687397   -1.115965   -1.357426
     21          1           0       -3.316898   -1.821609   -1.202089
     22          1           0       -3.107930   -0.231410   -1.976682
     23          6           0       -2.560662   -0.681242    2.477770
     24          1           0       -2.166743   -1.485719    3.106683
     25          1           0       -2.060426    0.260171    2.756081
     26          1           0       -3.634503   -0.563894    2.655028
     27          7           0        0.448468    0.644755    0.771723
     28          6           0        1.384036    1.369617    0.153452
     29          6           0        1.053342   -0.031830    1.809307
     30          7           0        2.562684    1.183617    0.747810
     31          1           0        1.205456    2.006318   -0.698532
     32          6           0        2.388043    0.301118    1.800448
     33          1           0        0.492550   -0.694345    2.447847
     34          6           0        3.525314   -0.153181    2.665177
     35          6           0        4.318534    1.000444    3.309720
     36          1           0        3.113923   -0.806792    3.442436
     37          1           0        4.209616   -0.770651    2.071547
     38          1           0        5.159224    0.600459    3.884488
     39          1           0        3.686172    1.586354    3.985646
     40          1           0        4.713659    1.675426    2.546340
     41          6           0       -7.484626   -0.925753   -0.214197
     42          6           0       -6.932715   -2.285274    0.211904
     43          1           0       -6.776636   -0.110514   -0.047662
     44          1           0       -8.410030   -0.733192    0.335632
     45          1           0       -7.740900   -0.970480   -1.277717
     46          7           0       -5.634485   -2.276568    0.592674
     47          8           0       -7.629536   -3.302437    0.190583
     48          6           0       -4.962743   -3.501310    0.985169
     49          1           0       -5.104897   -1.393712    0.583758
     50          1           0       -5.101442   -4.280752    0.228167
     51          1           0       -5.354289   -3.893538    1.932687
     52          1           0       -3.898515   -3.281438    1.097319
     53          6           0        5.645129    1.394030   -0.116923
     54          6           0        7.101263    1.863404   -0.145949
     55          8           0        4.778545    2.285160    0.162972
     56          8           0        5.386650    0.182225   -0.334876
     57          6           0        8.081481    0.837679   -0.710146
     58          1           0        7.365124    2.128163    0.886663
     59          1           0        7.130864    2.805015   -0.705846
     60          1           0        9.109101    1.216258   -0.680473
     61          1           0        7.837281    0.592803   -1.748291
     62          1           0        8.038691   -0.095663   -0.142706
     63          7           0        3.560078   -1.784164   -1.373008
     64          6           0        2.116245   -1.875417   -1.242243
     65          6           0        4.226554   -2.544622   -2.298807
     66          1           0        4.031799   -0.957343   -1.002865
     67          1           0        1.821922   -1.657410   -0.213530
     68          1           0        1.592123   -1.178062   -1.909986
     69          1           0        1.805472   -2.887581   -1.504287
     70          6           0        5.720455   -2.267745   -2.386623
     71          8           0        3.678327   -3.419296   -2.965295
     72          1           0        5.930753   -1.195338   -2.397726
     73          1           0        6.218636   -2.671327   -1.499190
     74          1           0        6.112019   -2.751286   -3.281976
     75          8           0        5.737287   -2.233768    0.956897
     76          1           0        4.941919   -2.539128    0.496711
     77          1           0        5.853667   -1.347858    0.560592
     78          1           0        3.536444    1.663168    0.443768
     79          1           0       -0.585717    0.661526    0.498299
 ---------------------------------------------------------------------

 SCF Done:  E(RB3LYP) =  -1777.91568544     A.U. after   13 cycles

 The electronic state is 1-A.
 Alpha  occ. eigenvalues --  -19.11902 -19.11835 -19.10691 -19.09546 -19.09416
 Alpha  occ. eigenvalues --  -19.08833 -19.07913 -19.07778 -19.05811 -14.37162
 Alpha  occ. eigenvalues --  -14.35942 -14.32219 -14.31608 -14.31239 -10.28488
 Alpha  occ. eigenvalues --  -10.27077 -10.25981 -10.25240 -10.25078 -10.24946
 Alpha  occ. eigenvalues --  -10.21226 -10.20488 -10.20260 -10.19432 -10.18245
 Alpha  occ. eigenvalues --  -10.18182 -10.17947 -10.17207 -10.16209 -10.16139
 Alpha  occ. eigenvalues --  -10.15549 -10.15354 -10.15224 -10.15136 -10.14008
 Alpha  occ. eigenvalues --   -1.03357  -1.02979  -1.02088  -1.00472  -0.99750
 Alpha  occ. eigenvalues --   -0.99454  -0.96614  -0.96513  -0.93842  -0.92583
 Alpha  occ. eigenvalues --   -0.88333  -0.88227  -0.87696  -0.87521  -0.77624
 Alpha  occ. eigenvalues --   -0.74338  -0.74196  -0.72023  -0.71659  -0.71252
 Alpha  occ. eigenvalues --   -0.70798  -0.66380  -0.65046  -0.64762  -0.64390
 Alpha  occ. eigenvalues --   -0.62794  -0.62320  -0.61182  -0.60251  -0.58269
 Alpha  occ. eigenvalues --   -0.54687  -0.54211  -0.54161  -0.53449  -0.52475
 Alpha  occ. eigenvalues --   -0.50812  -0.48954  -0.48245  -0.47319  -0.46748
 Alpha  occ. eigenvalues --   -0.46647  -0.46294  -0.44928  -0.44451  -0.44150
 Alpha  occ. eigenvalues --   -0.43952  -0.43548  -0.43368  -0.43054  -0.42727
 Alpha  occ. eigenvalues --   -0.42634  -0.42503  -0.42328  -0.42176  -0.42100
 Alpha  occ. eigenvalues --   -0.41644  -0.40875  -0.40600  -0.40078  -0.39670
 Alpha  occ. eigenvalues --   -0.38940  -0.38808  -0.38471  -0.38015  -0.37676
 Alpha  occ. eigenvalues --   -0.37265  -0.37209  -0.36865  -0.36305  -0.36189
 Alpha  occ. eigenvalues --   -0.35974  -0.35652  -0.35547  -0.35372  -0.35047
 Alpha  occ. eigenvalues --   -0.34939  -0.34883  -0.34632  -0.33899  -0.33653
 Alpha  occ. eigenvalues --   -0.33437  -0.32767  -0.32556  -0.31766  -0.31718
 Alpha  occ. eigenvalues --   -0.31494  -0.30290  -0.29908  -0.29252  -0.26836
 Alpha  occ. eigenvalues --   -0.26150  -0.25390  -0.24222  -0.23880  -0.23505
 Alpha  occ. eigenvalues --   -0.23075  -0.22995  -0.22471  -0.22167  -0.22015
 Alpha  occ. eigenvalues --   -0.21903  -0.21772  -0.21318  -0.20976
 Alpha virt. eigenvalues --    0.02426   0.04990   0.05461   0.05802   0.06011
 Alpha virt. eigenvalues --    0.06266   0.10162   0.10430   0.12257   0.12760
 Alpha virt. eigenvalues --    0.13020   0.13436   0.13690   0.14087   0.14379

 Mulliken charges:
               1
     1  C    0.573091
     2  C   -0.266529
     3  N   -0.552351
     4  C    0.035663
     5  H    0.130061
     6  H    0.125332
     7  O   -0.621177
     8  C   -0.182570
     9  H    0.323738
    10  H    0.085555
    11  O   -0.618555
    12  H    0.119369
    13  H    0.124660
    14  H    0.122282
    15  H    0.120879
    16  C    0.748265
    17  C   -0.346024
    18  O   -0.548199
    19  O   -0.696890
    20  H    0.102608
    21  H    0.112156
    22  H    0.110772
    23  C   -0.084149
    24  H    0.105532
    25  H    0.089826
    26  H    0.113001
    27  N   -0.508473
    28  C    0.298109
    29  C    0.005746
    30  N   -0.550907
    31  H    0.184273
    32  C    0.268636
    33  H    0.150576
    34  C   -0.248666
    35  C   -0.342135
    36  H    0.114491
    37  H    0.129585
    38  H    0.111440
    39  H    0.107355
    40  H    0.124860
    41  C   -0.413299
    42  C    0.551501
    43  H    0.134634
    44  H    0.132467
    45  H    0.138174
    46  N   -0.540226
    47  O   -0.612051
    48  C   -0.185471
    49  H    0.323325
    50  H    0.123790
    51  H    0.117200
    52  H    0.124635
    53  C    0.596038
    54  C   -0.262127
    55  O   -0.638699
    56  O   -0.592006
    57  C   -0.327296
    58  H    0.129177
    59  H    0.121562
    60  H    0.095866
    61  H    0.114583
    62  H    0.119796
    63  N   -0.540229
    64  C   -0.189832
    65  C    0.540617
    66  H    0.302589
    67  H    0.123060
    68  H    0.120861
    69  H    0.137152
    70  C   -0.407996
    71  O   -0.585939
    72  H    0.139803
    73  H    0.141385
    74  H    0.121749
    75  O   -0.694803
    76  H    0.322534
    77  H    0.355192
    78  H    0.396871
    79  H    0.394178
 Sum of Mulliken charges =  -1.00000

 Dipole moment (field-independent basis, Debye):
    X=              6.2020    Y=              4.9573    Z=              6.2085  Tot=             10.0790
 Quadrupole moment (field-independent basis, Debye-Ang):
   XX=           -378.6677   YY=           -291.8928   ZZ=           -228.4905
   XY=              3.4525   XZ=             -1.3018   YZ=              1.3934

 Normal termination of Gaussian 09 at Tue Sep  1 14:39:59 2020.
