 Gaussian 09, Revision D.01,
 Gaussian 09:  EM64L-G09RevD.01 24-Apr-2013

 -----------------------------------------------------------
 #p b3lyp/6-31g(d,p) scrf=(read,smd) empiricaldispersion=gd3
 -----------------------------------------------------------

 -------------------
 Title Card Required
 -------------------
 Symbolic Z-matrix:
 Charge = -1 Multiplicity = 1

                         Standard orientation:
 ---------------------------------------------------------------------
 Center     Atomic      Atomic             Coordinates (Angstroms)
 Number     Number       Type             X           Y           Z
 ---------------------------------------------------------------------
      1          6           0       -3.804419    3.404113   -1.216440
      2          6           0       -2.582193    3.378651   -0.297252
      3          7           0       -4.741142    2.434232   -1.082251
      4          6           0       -2.370060    2.255590    0.713719
      5          1           0       -1.706333    3.439796   -0.953004
      6          1           0       -2.620657    4.339286    0.233808
      7          8           0       -3.930264    4.326253   -2.025525
      8          6           0       -5.932136    2.496553   -1.910990
      9          1           0       -4.601094    1.630788   -0.463411
     10          1           0       -1.615946    2.585414    1.447643
     11          8           0       -1.918433    1.070929    0.094008
     12          1           0       -3.293140    2.049599    1.271846
     13          1           0       -5.671973    2.523411   -2.974743
     14          1           0       -6.514024    3.400195   -1.696505
     15          1           0       -6.547161    1.616705   -1.711209
     16          6           0       -3.080677   -0.314774    0.155159
     17          6           0       -2.946921   -0.757613   -1.285601
     18          8           0       -2.360648   -1.197742    0.967098
     19          8           0       -4.173007    0.151187    0.591401
     20          1           0       -1.913920   -1.011934   -1.527314
     21          1           0       -3.584388   -1.635361   -1.434296
     22          1           0       -3.290038    0.050394   -1.931845
     23          6           0       -2.477891   -0.947320    2.363231
     24          1           0       -1.950246   -1.761347    2.865661
     25          1           0       -2.009745    0.009986    2.626277
     26          1           0       -3.523301   -0.924043    2.684461
     27          7           0        0.419615    0.707571    0.815451
     28          6           0        1.362235    1.406701    0.185263
     29          6           0        1.045391    0.025287    1.838464
     30          7           0        2.556888    1.201251    0.752305
     31          1           0        1.188078    2.047547   -0.665300
     32          6           0        2.388941    0.324953    1.808030
     33          1           0        0.497876   -0.626386    2.500640
     34          6           0        3.532952   -0.156075    2.649276
     35          6           0        4.361827    0.976247    3.285533
     36          1           0        3.123225   -0.806250    3.430724
     37          1           0        4.196830   -0.781626    2.041709
     38          1           0        5.210356    0.557182    3.835029
     39          1           0        3.756455    1.566463    3.982464
     40          1           0        4.748057    1.652526    2.518575
     41          6           0       -7.465869   -0.876228   -0.163904
     42          6           0       -6.926927   -2.256598    0.200673
     43          1           0       -6.750497   -0.073745    0.028825
     44          1           0       -8.384926   -0.692941    0.400380
     45          1           0       -7.732649   -0.877788   -1.225286
     46          7           0       -5.660929   -2.244572    0.681838
     47          8           0       -7.596765   -3.278811    0.051481
     48          6           0       -4.945644   -3.457871    1.014426
     49          1           0       -5.167738   -1.353076    0.749797
     50          1           0       -5.251562   -4.261174    0.338646
     51          1           0       -5.152299   -3.792152    2.040733
     52          1           0       -3.874143   -3.271402    0.914384
     53          6           0        5.652250    1.397497   -0.120522
     54          6           0        7.123235    1.824110   -0.122184
     55          8           0        4.806923    2.307484    0.139917
     56          8           0        5.371992    0.186557   -0.337870
     57          6           0        8.071513    0.798973   -0.737024
     58          1           0        7.392178    2.021620    0.924445
     59          1           0        7.185000    2.792895   -0.630119
     60          1           0        9.111816    1.139842   -0.685868
     61          1           0        7.824022    0.617857   -1.787729
     62          1           0        7.994911   -0.161310   -0.220635
     63          7           0        3.549669   -1.773618   -1.372002
     64          6           0        2.106002   -1.864823   -1.232070
     65          6           0        4.208829   -2.542062   -2.294568
     66          1           0        4.024376   -0.945591   -1.005560
     67          1           0        1.814783   -1.573993   -0.220879
     68          1           0        1.576488   -1.219024   -1.945876
     69          1           0        1.798697   -2.894454   -1.421612
     70          6           0        5.704649   -2.274127   -2.393550
     71          8           0        3.652513   -3.419420   -2.952434
     72          1           0        5.922057   -1.203058   -2.393678
     73          1           0        6.207884   -2.690377   -1.514913
     74          1           0        6.084471   -2.750757   -3.297751
     75          8           0        5.759951   -2.224916    0.933957
     76          1           0        4.958800   -2.536695    0.488655
     77          1           0        5.852432   -1.332113    0.543488
     78          1           0        3.502372    1.660830    0.441231
     79          1           0       -0.732701    0.780924    0.496440
 ---------------------------------------------------------------------

 SCF Done:  E(RB3LYP) =  -1777.91068306     A.U. after   12 cycles

 The electronic state is 1-A.
 Alpha  occ. eigenvalues --  -19.14233 -19.10438 -19.10414 -19.08818 -19.08745
 Alpha  occ. eigenvalues --  -19.08622 -19.08503 -19.08258 -19.08115 -14.35196
 Alpha  occ. eigenvalues --  -14.34391 -14.32120 -14.31981 -14.31896 -10.29660
 Alpha  occ. eigenvalues --  -10.26444 -10.25765 -10.25637 -10.25451 -10.23504
 Alpha  occ. eigenvalues --  -10.20450 -10.20300 -10.19861 -10.19249 -10.18521
 Alpha  occ. eigenvalues --  -10.18255 -10.17968 -10.16796 -10.15997 -10.15749
 Alpha  occ. eigenvalues --  -10.15731 -10.15233 -10.15045 -10.14973 -10.14876
 Alpha  occ. eigenvalues --   -1.05110  -1.02183  -1.00643  -1.00236  -1.00069
 Alpha  occ. eigenvalues --   -0.99998  -0.96760  -0.96222  -0.95101  -0.93104
 Alpha  occ. eigenvalues --   -0.88341  -0.88092  -0.88030  -0.86497  -0.76824
 Alpha  occ. eigenvalues --   -0.73896  -0.73832  -0.72190  -0.71778  -0.71435
 Alpha  occ. eigenvalues --   -0.71029  -0.66591  -0.65884  -0.65221  -0.64832
 Alpha  occ. eigenvalues --   -0.61839  -0.61514  -0.60266  -0.58972  -0.57333
 Alpha  occ. eigenvalues --   -0.54842  -0.54682  -0.54441  -0.53099  -0.52382
 Alpha  occ. eigenvalues --   -0.49947  -0.48881  -0.47854  -0.47194  -0.47037
 Alpha  occ. eigenvalues --   -0.46431  -0.46307  -0.45147  -0.44327  -0.44155
 Alpha  occ. eigenvalues --   -0.43814  -0.43364  -0.43338  -0.43046  -0.42958
 Alpha  occ. eigenvalues --   -0.42651  -0.42614  -0.42533  -0.42249  -0.41410
 Alpha  occ. eigenvalues --   -0.41207  -0.40933  -0.40398  -0.39567  -0.39269
 Alpha  occ. eigenvalues --   -0.38853  -0.38675  -0.38557  -0.38268  -0.37731
 Alpha  occ. eigenvalues --   -0.37475  -0.37432  -0.36847  -0.36435  -0.36045
 Alpha  occ. eigenvalues --   -0.35963  -0.35891  -0.35647  -0.35526  -0.35377
 Alpha  occ. eigenvalues --   -0.35210  -0.34841  -0.34653  -0.34047  -0.33265
 Alpha  occ. eigenvalues --   -0.33093  -0.32401  -0.32265  -0.32225  -0.32029
 Alpha  occ. eigenvalues --   -0.31478  -0.31148  -0.30361  -0.27952  -0.26548
 Alpha  occ. eigenvalues --   -0.26072  -0.24781  -0.24646  -0.23844  -0.23541
 Alpha  occ. eigenvalues --   -0.23447  -0.23211  -0.22627  -0.22554  -0.22224
 Alpha  occ. eigenvalues --   -0.22015  -0.21995  -0.21828  -0.21275
 Alpha virt. eigenvalues --    0.03749   0.05321   0.05801   0.05913   0.06178
 Alpha virt. eigenvalues --    0.06480   0.08479   0.10389   0.10562   0.11997
 Alpha virt. eigenvalues --    0.12877   0.13323   0.13717   0.14003   0.14636

 Mulliken charges:
               1
     1  C    0.575073
     2  C   -0.264214
     3  N   -0.549794
     4  C    0.039305
     5  H    0.129046
     6  H    0.125022
     7  O   -0.616773
     8  C   -0.182305
     9  H    0.318530
    10  H    0.081888
    11  O   -0.652368
    12  H    0.105282
    13  H    0.127327
    14  H    0.124909
    15  H    0.119764
    16  C    0.715849
    17  C   -0.346194
    18  O   -0.509767
    19  O   -0.644777
    20  H    0.120829
    21  H    0.119581
    22  H    0.122971
    23  C   -0.093431
    24  H    0.118702
    25  H    0.111712
    26  H    0.119722
    27  N   -0.548941
    28  C    0.281862
    29  C   -0.000994
    30  N   -0.540635
    31  H    0.169667
    32  C    0.263429
    33  H    0.129345
    34  C   -0.247553
    35  C   -0.341654
    36  H    0.109912
    37  H    0.126301
    38  H    0.108875
    39  H    0.105180
    40  H    0.124676
    41  C   -0.414122
    42  C    0.554952
    43  H    0.131325
    44  H    0.136971
    45  H    0.140048
    46  N   -0.537391
    47  O   -0.606036
    48  C   -0.190098
    49  H    0.317562
    50  H    0.129857
    51  H    0.117059
    52  H    0.128299
    53  C    0.596648
    54  C   -0.261602
    55  O   -0.640594
    56  O   -0.598415
    57  C   -0.327055
    58  H    0.126849
    59  H    0.117222
    60  H    0.093483
    61  H    0.112855
    62  H    0.119642
    63  N   -0.539254
    64  C   -0.188853
    65  C    0.539942
    66  H    0.304182
    67  H    0.124173
    68  H    0.121011
    69  H    0.133381
    70  C   -0.408381
    71  O   -0.589477
    72  H    0.139901
    73  H    0.141310
    74  H    0.120472
    75  O   -0.697991
    76  H    0.321426
    77  H    0.356343
    78  H    0.374466
    79  H    0.444532
 Sum of Mulliken charges =  -1.00000

 Dipole moment (field-independent basis, Debye):
    X=              1.7084    Y=              3.8607    Z=              6.6022  Tot=              7.8366
 Quadrupole moment (field-independent basis, Debye-Ang):
   XX=           -371.2722   YY=           -290.4051   ZZ=           -228.5027
   XY=              3.2208   XZ=             -4.2084   YZ=             -1.1929

 Normal termination of Gaussian 09 at Tue Sep  1 13:51:29 2020.
