 Gaussian 09, Revision D.01,
 Gaussian 09:  EM64L-G09RevD.01 24-Apr-2013

 -----------------------------------------------
 #p b3lyp/6-311+g(2d,2p) empiricaldispersion=gd3
 -----------------------------------------------

 -------------------
 Title Card Required
 -------------------
 Symbolic Z-matrix:
 Charge = -1 Multiplicity = 1

                         Standard orientation:
 ---------------------------------------------------------------------
 Center     Atomic      Atomic             Coordinates (Angstroms)
 Number     Number       Type             X           Y           Z
 ---------------------------------------------------------------------
      1          6           0       -4.021380    3.701793   -0.972326
      2          6           0       -2.679576    3.810718   -0.246430
      3          7           0       -4.585129    2.467418   -1.060470
      4          6           0       -2.339431    2.761389    0.816666
      5          1           0       -1.892109    3.795420   -1.011149
      6          1           0       -2.667762    4.812380    0.195497
      7          8           0       -4.545604    4.692843   -1.480802
      8          6           0       -5.834293    2.285146   -1.781246
      9          1           0       -4.125832    1.665321   -0.648922
     10          1           0       -1.443509    3.088567    1.361159
     11          8           0       -2.114455    1.486007    0.238930
     12          1           0       -3.160730    2.702875    1.548969
     13          1           0       -5.787158    2.791040   -2.749939
     14          1           0       -6.685462    2.703522   -1.230512
     15          1           0       -5.992720    1.214712   -1.927182
     16          6           0       -3.077388   -0.721033   -1.244498
     17          6           0       -2.725096   -0.074509   -2.554647
     18          8           0       -2.000349   -1.250342   -0.660441
     19          8           0       -4.198985   -0.724626   -0.753499
     20          1           0       -1.949374   -0.638760   -3.075547
     21          1           0       -3.616062    0.035035   -3.172539
     22          1           0       -2.327940    0.914654   -2.306435
     23          6           0       -2.134470   -1.630546    0.721197
     24          1           0       -1.119650   -1.832579    1.061224
     25          1           0       -2.565035   -0.798400    1.281281
     26          1           0       -2.760294   -2.521909    0.817292
     27          7           0        0.454861    0.934315    1.029250
     28          6           0        1.440730    1.476970    0.321949
     29          6           0        1.083876    0.333401    2.105120
     30          7           0        2.650529    1.253467    0.879921
     31          1           0        1.313232    2.029337   -0.598244
     32          6           0        2.450712    0.520827    2.031313
     33          1           0        0.523860   -0.192601    2.866387
     34          6           0        3.581988    0.054910    2.905757
     35          6           0        4.436302    1.186304    3.524775
     36          1           0        3.150074   -0.560442    3.704130
     37          1           0        4.240337   -0.608114    2.328766
     38          1           0        5.245606    0.761042    4.127092
     39          1           0        3.828456    1.834389    4.165799
     40          1           0        4.877388    1.801389    2.734444
     41          6           0       -7.739444   -1.065571    0.249007
     42          6           0       -7.252874   -2.292137    1.008760
     43          1           0       -6.940145   -0.526213   -0.265960
     44          1           0       -8.233029   -0.391508    0.954881
     45          1           0       -8.491576   -1.384348   -0.477749
     46          7           0       -5.906328   -2.498200    0.975708
     47          8           0       -8.039988   -3.026624    1.603461
     48          6           0       -5.293786   -3.627697    1.645594
     49          1           0       -5.310282   -1.859859    0.457004
     50          1           0       -6.090989   -4.226272    2.088577
     51          1           0       -4.611603   -3.301572    2.440635
     52          1           0       -4.729419   -4.248790    0.939257
     53          6           0        5.855546    1.263313   -0.066075
     54          6           0        7.348580    1.613795    0.039723
     55          8           0        5.043804    2.178700    0.249294
     56          8           0        5.547424    0.086185   -0.415765
     57          6           0        8.264096    0.753120   -0.830067
     58          1           0        7.616871    1.495897    1.099247
     59          1           0        7.458789    2.680260   -0.182407
     60          1           0        9.319479    1.002035   -0.669642
     61          1           0        8.040123    0.893895   -1.893025
     62          1           0        8.114224   -0.306048   -0.606348
     63          7           0        3.599445   -1.851192   -1.239215
     64          6           0        2.162179   -1.897442   -1.034918
     65          6           0        4.193315   -2.713134   -2.119129
     66          1           0        4.116504   -1.017430   -0.943616
     67          1           0        1.910482   -1.373172   -0.110070
     68          1           0        1.606041   -1.431575   -1.859820
     69          1           0        1.840039   -2.939130   -0.969788
     70          6           0        5.695244   -2.526081   -2.282989
     71          8           0        3.572497   -3.609283   -2.691000
     72          1           0        5.957017   -1.471778   -2.405254
     73          1           0        6.196998   -2.860464   -1.368441
     74          1           0        6.032999   -3.117968   -3.134128
     75          8           0        5.729014   -2.205434    1.103169
     76          1           0        4.901576   -2.489827    0.689111
     77          1           0        5.880055   -1.356072    0.638551
     78          1           0        3.597474    1.604136    0.532793
     79          1           0       -1.196424    1.187639    0.506273
 ---------------------------------------------------------------------

 SCF Done:  E(RB3LYP) =  -1778.44078016     A.U. after   15 cycles

 The electronic state is 1-A.
 Alpha  occ. eigenvalues --  -19.11491 -19.06252 -19.03346 -19.01702 -19.01143
 Alpha  occ. eigenvalues --  -19.00758 -18.99112 -18.98676 -18.98610 -14.26827
 Alpha  occ. eigenvalues --  -14.26312 -14.25862 -14.23207 -14.22511 -10.25361
 Alpha  occ. eigenvalues --  -10.20465 -10.19571 -10.17642 -10.17326 -10.16171
 Alpha  occ. eigenvalues --  -10.14608 -10.14072 -10.13767 -10.13208 -10.11805
 Alpha  occ. eigenvalues --  -10.11754 -10.10795 -10.10492 -10.10301 -10.10227
 Alpha  occ. eigenvalues --  -10.09284 -10.08023 -10.07772 -10.07507 -10.07084
 Alpha  occ. eigenvalues --   -1.05532  -0.96804  -0.96567  -0.96088  -0.94989
 Alpha  occ. eigenvalues --   -0.93698  -0.93645  -0.92612  -0.89617  -0.86093
 Alpha  occ. eigenvalues --   -0.85404  -0.84682  -0.81872  -0.78376  -0.71479
 Alpha  occ. eigenvalues --   -0.70250  -0.70030  -0.68702  -0.67932  -0.65297
 Alpha  occ. eigenvalues --   -0.64623  -0.64105  -0.63240  -0.62392  -0.58801
 Alpha  occ. eigenvalues --   -0.56192  -0.55497  -0.55199  -0.52038  -0.51444
 Alpha  occ. eigenvalues --   -0.51393  -0.51062  -0.50365  -0.48287  -0.45843
 Alpha  occ. eigenvalues --   -0.45070  -0.44742  -0.43991  -0.43713  -0.43324
 Alpha  occ. eigenvalues --   -0.42765  -0.42235  -0.40920  -0.40382  -0.40296
 Alpha  occ. eigenvalues --   -0.39758  -0.39673  -0.38750  -0.37861  -0.37649
 Alpha  occ. eigenvalues --   -0.37507  -0.37157  -0.37077  -0.36641  -0.36485
 Alpha  occ. eigenvalues --   -0.36345  -0.36333  -0.36007  -0.34720  -0.34589
 Alpha  occ. eigenvalues --   -0.34470  -0.34389  -0.34086  -0.33487  -0.33242
 Alpha  occ. eigenvalues --   -0.33226  -0.32991  -0.32768  -0.32566  -0.32502
 Alpha  occ. eigenvalues --   -0.31967  -0.31517  -0.31283  -0.30933  -0.30251
 Alpha  occ. eigenvalues --   -0.30145  -0.29748  -0.29469  -0.29137  -0.28823
 Alpha  occ. eigenvalues --   -0.28569  -0.28185  -0.27830  -0.27156  -0.26854
 Alpha  occ. eigenvalues --   -0.26424  -0.25917  -0.25693  -0.25351  -0.23499
 Alpha  occ. eigenvalues --   -0.21327  -0.20363  -0.20245  -0.20023  -0.19219
 Alpha  occ. eigenvalues --   -0.19102  -0.18744  -0.18134  -0.17935  -0.17006
 Alpha  occ. eigenvalues --   -0.16392  -0.16173  -0.15682  -0.14521
 Alpha virt. eigenvalues --    0.05052   0.05564   0.06269   0.07007   0.07113
 Alpha virt. eigenvalues --    0.07569   0.08160   0.08359   0.08440   0.08674
 Alpha virt. eigenvalues --    0.08806   0.09183   0.09268   0.09573   0.09873

 Mulliken charges:
               1
     1  C    0.196054
     2  C    0.117888
     3  N   -0.248463
     4  C   -0.212939
     5  H    0.089306
     6  H    0.095647
     7  O   -0.546589
     8  C   -0.164470
     9  H    0.265907
    10  H    0.126613
    11  O   -0.647626
    12  H    0.094791
    13  H    0.118929
    14  H    0.099704
    15  H    0.110774
    16  C    0.446848
    17  C   -0.313016
    18  O   -0.277567
    19  O   -0.517621
    20  H    0.125544
    21  H    0.117672
    22  H    0.151575
    23  C   -0.120175
    24  H    0.154410
    25  H    0.138447
    26  H    0.112362
    27  N   -0.511260
    28  C    0.188851
    29  C   -0.405564
    30  N   -0.400035
    31  H    0.121588
    32  C    0.429863
    33  H    0.086250
    34  C   -0.298200
    35  C   -0.454911
    36  H    0.070069
    37  H    0.164184
    38  H    0.088009
    39  H    0.083435
    40  H    0.120564
    41  C   -0.250739
    42  C    0.294955
    43  H    0.122759
    44  H    0.103086
    45  H    0.099994
    46  N   -0.244840
    47  O   -0.551035
    48  C   -0.201529
    49  H    0.285712
    50  H    0.136503
    51  H    0.095164
    52  H    0.093683
    53  C    0.557627
    54  C   -0.037609
    55  O   -0.621938
    56  O   -0.732146
    57  C   -0.363444
    58  H    0.081461
    59  H    0.084233
    60  H    0.083342
    61  H    0.089122
    62  H    0.108413
    63  N   -0.437158
    64  C   -0.178884
    65  C    0.349076
    66  H    0.355319
    67  H    0.142625
    68  H    0.095909
    69  H    0.113970
    70  C   -0.312186
    71  O   -0.549678
    72  H    0.111821
    73  H    0.124649
    74  H    0.105297
    75  O   -0.486541
    76  H    0.208818
    77  H    0.274982
    78  H    0.486131
    79  H    0.566225
 Sum of Mulliken charges =  -1.00000

 Dipole moment (field-independent basis, Debye):
    X=             -3.7209    Y=              1.2956    Z=              1.2077  Tot=              4.1210
 Quadrupole moment (field-independent basis, Debye-Ang):
   XX=           -396.0087   YY=           -294.0168   ZZ=           -237.1213
   XY=             13.8924   XZ=             14.0464   YZ=              0.4472

 Normal termination of Gaussian 09 at Thu Aug 27 17:35:16 2020.
