 Gaussian 09, Revision D.01,
 Gaussian 09:  EM64L-G09RevD.01 24-Apr-2013

 -----------------------------------------------------------
 #p b3lyp/6-31g(d,p) scrf=(read,smd) empiricaldispersion=gd3
 -----------------------------------------------------------

 -------------------
 Title Card Required
 -------------------
 Symbolic Z-matrix:
 Charge = -1 Multiplicity = 1

                         Standard orientation:
 ---------------------------------------------------------------------
 Center     Atomic      Atomic             Coordinates (Angstroms)
 Number     Number       Type             X           Y           Z
 ---------------------------------------------------------------------
      1          6           0       -4.021380    3.701793   -0.972326
      2          6           0       -2.679576    3.810718   -0.246430
      3          7           0       -4.585129    2.467418   -1.060470
      4          6           0       -2.339431    2.761389    0.816666
      5          1           0       -1.892109    3.795420   -1.011149
      6          1           0       -2.667762    4.812380    0.195497
      7          8           0       -4.545604    4.692843   -1.480802
      8          6           0       -5.834293    2.285146   -1.781246
      9          1           0       -4.125832    1.665321   -0.648922
     10          1           0       -1.443509    3.088567    1.361159
     11          8           0       -2.114455    1.486007    0.238930
     12          1           0       -3.160730    2.702875    1.548969
     13          1           0       -5.787158    2.791040   -2.749939
     14          1           0       -6.685462    2.703522   -1.230512
     15          1           0       -5.992720    1.214712   -1.927182
     16          6           0       -3.077388   -0.721033   -1.244498
     17          6           0       -2.725096   -0.074509   -2.554647
     18          8           0       -2.000349   -1.250342   -0.660441
     19          8           0       -4.198985   -0.724626   -0.753499
     20          1           0       -1.949374   -0.638760   -3.075547
     21          1           0       -3.616062    0.035035   -3.172539
     22          1           0       -2.327940    0.914654   -2.306435
     23          6           0       -2.134470   -1.630546    0.721197
     24          1           0       -1.119650   -1.832579    1.061224
     25          1           0       -2.565035   -0.798400    1.281281
     26          1           0       -2.760294   -2.521909    0.817292
     27          7           0        0.454861    0.934315    1.029250
     28          6           0        1.440730    1.476970    0.321949
     29          6           0        1.083876    0.333401    2.105120
     30          7           0        2.650529    1.253467    0.879921
     31          1           0        1.313232    2.029337   -0.598244
     32          6           0        2.450712    0.520827    2.031313
     33          1           0        0.523860   -0.192601    2.866387
     34          6           0        3.581988    0.054910    2.905757
     35          6           0        4.436302    1.186304    3.524775
     36          1           0        3.150074   -0.560442    3.704130
     37          1           0        4.240337   -0.608114    2.328766
     38          1           0        5.245606    0.761042    4.127092
     39          1           0        3.828456    1.834389    4.165799
     40          1           0        4.877388    1.801389    2.734444
     41          6           0       -7.739444   -1.065571    0.249007
     42          6           0       -7.252874   -2.292137    1.008760
     43          1           0       -6.940145   -0.526213   -0.265960
     44          1           0       -8.233029   -0.391508    0.954881
     45          1           0       -8.491576   -1.384348   -0.477749
     46          7           0       -5.906328   -2.498200    0.975708
     47          8           0       -8.039988   -3.026624    1.603461
     48          6           0       -5.293786   -3.627697    1.645594
     49          1           0       -5.310282   -1.859859    0.457004
     50          1           0       -6.090989   -4.226272    2.088577
     51          1           0       -4.611603   -3.301572    2.440635
     52          1           0       -4.729419   -4.248790    0.939257
     53          6           0        5.855546    1.263313   -0.066075
     54          6           0        7.348580    1.613795    0.039723
     55          8           0        5.043804    2.178700    0.249294
     56          8           0        5.547424    0.086185   -0.415765
     57          6           0        8.264096    0.753120   -0.830067
     58          1           0        7.616871    1.495897    1.099247
     59          1           0        7.458789    2.680260   -0.182407
     60          1           0        9.319479    1.002035   -0.669642
     61          1           0        8.040123    0.893895   -1.893025
     62          1           0        8.114224   -0.306048   -0.606348
     63          7           0        3.599445   -1.851192   -1.239215
     64          6           0        2.162179   -1.897442   -1.034918
     65          6           0        4.193315   -2.713134   -2.119129
     66          1           0        4.116504   -1.017430   -0.943616
     67          1           0        1.910482   -1.373172   -0.110070
     68          1           0        1.606041   -1.431575   -1.859820
     69          1           0        1.840039   -2.939130   -0.969788
     70          6           0        5.695244   -2.526081   -2.282989
     71          8           0        3.572497   -3.609283   -2.691000
     72          1           0        5.957017   -1.471778   -2.405254
     73          1           0        6.196998   -2.860464   -1.368441
     74          1           0        6.032999   -3.117968   -3.134128
     75          8           0        5.729014   -2.205434    1.103169
     76          1           0        4.901576   -2.489827    0.689111
     77          1           0        5.880055   -1.356072    0.638551
     78          1           0        3.597474    1.604136    0.532793
     79          1           0       -1.196424    1.187639    0.506273
 ---------------------------------------------------------------------

 SCF Done:  E(RB3LYP) =  -1777.92996029     A.U. after   12 cycles

 The electronic state is 1-A.
 Alpha  occ. eigenvalues --  -19.18211 -19.13363 -19.10621 -19.10021 -19.08904
 Alpha  occ. eigenvalues --  -19.08833 -19.08473 -19.08061 -19.07892 -14.33576
 Alpha  occ. eigenvalues --  -14.33104 -14.33095 -14.31770 -14.30037 -10.31096
 Alpha  occ. eigenvalues --  -10.26506 -10.26073 -10.25702 -10.25557 -10.21656
 Alpha  occ. eigenvalues --  -10.20867 -10.20565 -10.19029 -10.18964 -10.18544
 Alpha  occ. eigenvalues --  -10.17870 -10.17064 -10.16957 -10.16411 -10.16264
 Alpha  occ. eigenvalues --  -10.16254 -10.15256 -10.14930 -10.14787 -10.14619
 Alpha  occ. eigenvalues --   -1.09361  -1.01148  -1.00779  -1.00737  -1.00610
 Alpha  occ. eigenvalues --   -1.00044  -0.97972  -0.97503  -0.95794  -0.92251
 Alpha  occ. eigenvalues --   -0.89087  -0.88863  -0.87825  -0.83420  -0.75309
 Alpha  occ. eigenvalues --   -0.75088  -0.74194  -0.73283  -0.72347  -0.71276
 Alpha  occ. eigenvalues --   -0.69080  -0.68224  -0.67237  -0.65901  -0.64645
 Alpha  occ. eigenvalues --   -0.60907  -0.60429  -0.60229  -0.56414  -0.55705
 Alpha  occ. eigenvalues --   -0.55361  -0.55303  -0.54855  -0.54219  -0.50243
 Alpha  occ. eigenvalues --   -0.49383  -0.48580  -0.48463  -0.47610  -0.47345
 Alpha  occ. eigenvalues --   -0.46943  -0.46798  -0.46323  -0.46082  -0.44167
 Alpha  occ. eigenvalues --   -0.43856  -0.43624  -0.43202  -0.42989  -0.42762
 Alpha  occ. eigenvalues --   -0.42623  -0.42264  -0.41816  -0.41429  -0.41192
 Alpha  occ. eigenvalues --   -0.41169  -0.40203  -0.39991  -0.39743  -0.39418
 Alpha  occ. eigenvalues --   -0.38552  -0.38345  -0.38280  -0.38135  -0.37983
 Alpha  occ. eigenvalues --   -0.37816  -0.37309  -0.37199  -0.36877  -0.36749
 Alpha  occ. eigenvalues --   -0.36528  -0.36331  -0.35905  -0.35864  -0.35221
 Alpha  occ. eigenvalues --   -0.35101  -0.34625  -0.34439  -0.34239  -0.33851
 Alpha  occ. eigenvalues --   -0.32985  -0.32872  -0.32538  -0.32403  -0.32042
 Alpha  occ. eigenvalues --   -0.31765  -0.30769  -0.30733  -0.29338  -0.27163
 Alpha  occ. eigenvalues --   -0.26340  -0.25769  -0.25169  -0.24165  -0.23987
 Alpha  occ. eigenvalues --   -0.23265  -0.23076  -0.22879  -0.22851  -0.22705
 Alpha  occ. eigenvalues --   -0.22223  -0.22132  -0.21774  -0.19365
 Alpha virt. eigenvalues --    0.02076   0.05138   0.05369   0.05515   0.05943
 Alpha virt. eigenvalues --    0.06804   0.08392   0.09614   0.10857   0.11408
 Alpha virt. eigenvalues --    0.12105   0.13129   0.13854   0.14065   0.14549

 Mulliken charges:
               1
     1  C    0.569003
     2  C   -0.258793
     3  N   -0.531547
     4  C    0.023065
     5  H    0.138226
     6  H    0.123267
     7  O   -0.604608
     8  C   -0.183051
     9  H    0.303578
    10  H    0.103411
    11  O   -0.622923
    12  H    0.092791
    13  H    0.131274
    14  H    0.126164
    15  H    0.128778
    16  C    0.636114
    17  C   -0.398248
    18  O   -0.446240
    19  O   -0.530174
    20  H    0.150111
    21  H    0.141145
    22  H    0.169425
    23  C   -0.112232
    24  H    0.146303
    25  H    0.140711
    26  H    0.130839
    27  N   -0.536962
    28  C    0.248413
    29  C   -0.037857
    30  N   -0.531078
    31  H    0.132727
    32  C    0.253325
    33  H    0.095476
    34  C   -0.251224
    35  C   -0.337425
    36  H    0.104696
    37  H    0.119265
    38  H    0.103962
    39  H    0.103109
    40  H    0.123270
    41  C   -0.409757
    42  C    0.562618
    43  H    0.130805
    44  H    0.144804
    45  H    0.142139
    46  N   -0.536695
    47  O   -0.595907
    48  C   -0.187278
    49  H    0.305316
    50  H    0.141629
    51  H    0.124163
    52  H    0.124796
    53  C    0.590524
    54  C   -0.259735
    55  O   -0.631137
    56  O   -0.606218
    57  C   -0.327151
    58  H    0.124836
    59  H    0.108307
    60  H    0.092469
    61  H    0.107983
    62  H    0.119684
    63  N   -0.536398
    64  C   -0.187073
    65  C    0.539064
    66  H    0.302254
    67  H    0.129398
    68  H    0.119840
    69  H    0.127262
    70  C   -0.404301
    71  O   -0.593806
    72  H    0.141182
    73  H    0.140353
    74  H    0.118986
    75  O   -0.701560
    76  H    0.320329
    77  H    0.349184
    78  H    0.340907
    79  H    0.372099
 Sum of Mulliken charges =  -1.00000

 Dipole moment (field-independent basis, Debye):
    X=             -3.5756    Y=              1.3266    Z=              1.2655  Tot=              4.0182
 Quadrupole moment (field-independent basis, Debye-Ang):
   XX=           -387.2193   YY=           -287.4425   ZZ=           -227.2565
   XY=             15.5686   XZ=             14.9941   YZ=              1.4338

 Normal termination of Gaussian 09 at Tue Sep  1 14:39:48 2020.
