 Gaussian 09, Revision D.01,
 Gaussian 09:  EM64L-G09RevD.01 24-Apr-2013

 ----------------------------------------------------------------------
 #p opt=modredundant rb3lyp/6-31g(d,p) geom=connectivity empiricaldispe
 rsion=gd3
 ----------------------------------------------------------------------

 -----
 TITLE
 -----
 Symbolic Z-matrix:
 Charge = -1 Multiplicity = 1

 SCF Done:  E(RB3LYP) =  -1777.86282762     A.U. after   14 cycles
 SCF Done:  E(RB3LYP) =  -1777.86317192     A.U. after   11 cycles
 SCF Done:  E(RB3LYP) =  -1777.86326177     A.U. after   10 cycles
 SCF Done:  E(RB3LYP) =  -1777.86179315     A.U. after   12 cycles
 SCF Done:  E(RB3LYP) =  -1777.86333122     A.U. after    9 cycles
 SCF Done:  E(RB3LYP) =  -1777.86339820     A.U. after   11 cycles
 SCF Done:  E(RB3LYP) =  -1777.86319527     A.U. after   12 cycles
 SCF Done:  E(RB3LYP) =  -1777.86381846     A.U. after   11 cycles
 SCF Done:  E(RB3LYP) =  -1777.86391906     A.U. after   10 cycles
 SCF Done:  E(RB3LYP) =  -1777.86419146     A.U. after   11 cycles
 SCF Done:  E(RB3LYP) =  -1777.86448684     A.U. after    9 cycles
 SCF Done:  E(RB3LYP) =  -1777.86448849     A.U. after    8 cycles
 SCF Done:  E(RB3LYP) =  -1777.86448980     A.U. after    7 cycles
 SCF Done:  E(RB3LYP) =  -1777.86449058     A.U. after    7 cycles
 SCF Done:  E(RB3LYP) =  -1777.86449091     A.U. after    7 cycles
 SCF Done:  E(RB3LYP) =  -1777.86449110     A.U. after    6 cycles
 SCF Done:  E(RB3LYP) =  -1777.86449124     A.U. after    6 cycles
 SCF Done:  E(RB3LYP) =  -1777.86449135     A.U. after    6 cycles
 SCF Done:  E(RB3LYP) =  -1777.86449142     A.U. after    6 cycles
 SCF Done:  E(RB3LYP) =  -1777.86449145     A.U. after    6 cycles
 Optimization completed.
    -- Stationary point found.

                         Standard orientation:
 ---------------------------------------------------------------------
 Center     Atomic      Atomic             Coordinates (Angstroms)
 Number     Number       Type             X           Y           Z
 ---------------------------------------------------------------------
      1          6           0       -3.839584    3.420095   -1.233689
      2          6           0       -2.598433    3.377104   -0.332195
      3          7           0       -4.728983    2.403862   -1.148825
      4          6           0       -2.442955    2.245074    0.681187
      5          1           0       -1.726265    3.393208   -0.996106
      6          1           0       -2.595894    4.340709    0.192290
      7          8           0       -4.002585    4.384608   -1.986333
      8          6           0       -5.932169    2.450208   -1.961205
      9          1           0       -4.558869    1.572420   -0.562340
     10          1           0       -1.678517    2.529174    1.421449
     11          8           0       -2.023771    1.043857    0.041922
     12          1           0       -3.378226    2.060830    1.219490
     13          1           0       -5.687305    2.562901   -3.023214
     14          1           0       -6.566896    3.300005   -1.683135
     15          1           0       -6.489694    1.523056   -1.814196
     16          6           0       -2.964501   -0.201572    0.155581
     17          6           0       -2.743771   -0.891377   -1.187070
     18          8           0       -2.292601   -1.040100    1.133052
     19          8           0       -4.172593    0.144729    0.460630
     20          1           0       -1.687397   -1.115965   -1.357426
     21          1           0       -3.316898   -1.821609   -1.202089
     22          1           0       -3.107930   -0.231410   -1.976682
     23          6           0       -2.560662   -0.681242    2.477770
     24          1           0       -2.166743   -1.485719    3.106683
     25          1           0       -2.060426    0.260171    2.756081
     26          1           0       -3.634503   -0.563894    2.655028
     27          7           0        0.448468    0.644755    0.771723
     28          6           0        1.384036    1.369617    0.153452
     29          6           0        1.053342   -0.031830    1.809307
     30          7           0        2.562684    1.183617    0.747810
     31          1           0        1.205456    2.006318   -0.698532
     32          6           0        2.388043    0.301118    1.800448
     33          1           0        0.492550   -0.694345    2.447847
     34          6           0        3.525314   -0.153181    2.665177
     35          6           0        4.318534    1.000444    3.309720
     36          1           0        3.113923   -0.806792    3.442436
     37          1           0        4.209616   -0.770651    2.071547
     38          1           0        5.159224    0.600459    3.884488
     39          1           0        3.686172    1.586354    3.985646
     40          1           0        4.713659    1.675426    2.546340
     41          6           0       -7.484626   -0.925753   -0.214197
     42          6           0       -6.932715   -2.285274    0.211904
     43          1           0       -6.776636   -0.110514   -0.047662
     44          1           0       -8.410030   -0.733192    0.335632
     45          1           0       -7.740900   -0.970480   -1.277717
     46          7           0       -5.634485   -2.276568    0.592674
     47          8           0       -7.629536   -3.302437    0.190583
     48          6           0       -4.962743   -3.501310    0.985169
     49          1           0       -5.104897   -1.393712    0.583758
     50          1           0       -5.101442   -4.280752    0.228167
     51          1           0       -5.354289   -3.893538    1.932687
     52          1           0       -3.898515   -3.281438    1.097319
     53          6           0        5.645129    1.394030   -0.116923
     54          6           0        7.101263    1.863404   -0.145949
     55          8           0        4.778545    2.285160    0.162972
     56          8           0        5.386650    0.182225   -0.334876
     57          6           0        8.081481    0.837679   -0.710146
     58          1           0        7.365124    2.128163    0.886663
     59          1           0        7.130864    2.805015   -0.705846
     60          1           0        9.109101    1.216258   -0.680473
     61          1           0        7.837281    0.592803   -1.748291
     62          1           0        8.038691   -0.095663   -0.142706
     63          7           0        3.560078   -1.784164   -1.373008
     64          6           0        2.116245   -1.875417   -1.242243
     65          6           0        4.226554   -2.544622   -2.298807
     66          1           0        4.031799   -0.957343   -1.002865
     67          1           0        1.821922   -1.657410   -0.213530
     68          1           0        1.592123   -1.178062   -1.909986
     69          1           0        1.805472   -2.887581   -1.504287
     70          6           0        5.720455   -2.267745   -2.386623
     71          8           0        3.678327   -3.419296   -2.965295
     72          1           0        5.930753   -1.195338   -2.397726
     73          1           0        6.218636   -2.671327   -1.499190
     74          1           0        6.112019   -2.751286   -3.281976
     75          8           0        5.737287   -2.233768    0.956897
     76          1           0        4.941919   -2.539128    0.496711
     77          1           0        5.853667   -1.347858    0.560592
     78          1           0        3.536444    1.663168    0.443768
     79          1           0       -0.585717    0.661526    0.498299
 ---------------------------------------------------------------------

 The electronic state is 1-A.
 Alpha  occ. eigenvalues --  -19.05792 -19.05595 -19.03820 -19.03412 -19.03314
 Alpha  occ. eigenvalues --  -19.01664 -19.00412 -18.99994 -18.98977 -14.32454
 Alpha  occ. eigenvalues --  -14.31183 -14.25874 -14.24817 -14.24198 -10.22047
 Alpha  occ. eigenvalues --  -10.21111 -10.20507 -10.19157 -10.18165 -10.17723
 Alpha  occ. eigenvalues --  -10.16624 -10.15995 -10.14591 -10.14029 -10.12586
 Alpha  occ. eigenvalues --  -10.12574 -10.12423 -10.11800 -10.11221 -10.11117
 Alpha  occ. eigenvalues --  -10.10452 -10.10368 -10.09299 -10.09250 -10.07889
 Alpha  occ. eigenvalues --   -0.97770  -0.96933  -0.96609  -0.93330  -0.92322
 Alpha  occ. eigenvalues --   -0.91716  -0.90500  -0.89703  -0.87658  -0.85946
 Alpha  occ. eigenvalues --   -0.83490  -0.81910  -0.80884  -0.80455  -0.73070
 Alpha  occ. eigenvalues --   -0.69249  -0.68355  -0.67501  -0.65604  -0.64847
 Alpha  occ. eigenvalues --   -0.64634  -0.60328  -0.59207  -0.58662  -0.58451
 Alpha  occ. eigenvalues --   -0.57987  -0.57634  -0.56290  -0.54339  -0.53751
 Alpha  occ. eigenvalues --   -0.49037  -0.48384  -0.47486  -0.47365  -0.46185
 Alpha  occ. eigenvalues --   -0.45344  -0.43057  -0.42171  -0.41251  -0.41101
 Alpha  occ. eigenvalues --   -0.40571  -0.39821  -0.39678  -0.39428  -0.38558
 Alpha  occ. eigenvalues --   -0.38403  -0.37979  -0.37798  -0.37279  -0.36744
 Alpha  occ. eigenvalues --   -0.36687  -0.36332  -0.36276  -0.35958  -0.35799
 Alpha  occ. eigenvalues --   -0.35558  -0.35505  -0.34608  -0.34315  -0.34132
 Alpha  occ. eigenvalues --   -0.32994  -0.32680  -0.32353  -0.31945  -0.31775
 Alpha  occ. eigenvalues --   -0.31368  -0.31005  -0.30904  -0.30850  -0.30444
 Alpha  occ. eigenvalues --   -0.29987  -0.29378  -0.29304  -0.29103  -0.29064
 Alpha  occ. eigenvalues --   -0.28963  -0.28772  -0.28704  -0.28270  -0.27908
 Alpha  occ. eigenvalues --   -0.27719  -0.27338  -0.26446  -0.25850  -0.25077
 Alpha  occ. eigenvalues --   -0.24613  -0.24453  -0.24134  -0.23640  -0.20100
 Alpha  occ. eigenvalues --   -0.19936  -0.19052  -0.18274  -0.17810  -0.17542
 Alpha  occ. eigenvalues --   -0.17122  -0.16129  -0.16113  -0.15180  -0.15112
 Alpha  occ. eigenvalues --   -0.14613  -0.14288  -0.13982  -0.13917
 Alpha virt. eigenvalues --    0.06994   0.10147   0.11087   0.12171   0.12794
 Alpha virt. eigenvalues --    0.13362   0.15391   0.15603   0.17206   0.17664
 Alpha virt. eigenvalues --    0.18018   0.18106   0.18707   0.19132   0.19794

 Mulliken charges:
               1
     1  C    0.566064
     2  C   -0.250751
     3  N   -0.555361
     4  C    0.037904
     5  H    0.111242
     6  H    0.104657
     7  O   -0.561978
     8  C   -0.158442
     9  H    0.325532
    10  H    0.060934
    11  O   -0.610288
    12  H    0.122190
    13  H    0.114205
    14  H    0.107277
    15  H    0.102026
    16  C    0.739779
    17  C   -0.321738
    18  O   -0.527647
    19  O   -0.673075
    20  H    0.088381
    21  H    0.105400
    22  H    0.103190
    23  C   -0.068307
    24  H    0.083200
    25  H    0.070735
    26  H    0.116574
    27  N   -0.502827
    28  C    0.298335
    29  C    0.016438
    30  N   -0.543937
    31  H    0.155743
    32  C    0.273313
    33  H    0.129687
    34  C   -0.246562
    35  C   -0.334291
    36  H    0.095183
    37  H    0.147380
    38  H    0.100450
    39  H    0.094258
    40  H    0.134751
    41  C   -0.403541
    42  C    0.545505
    43  H    0.133809
    44  H    0.112827
    45  H    0.117725
    46  N   -0.543380
    47  O   -0.552612
    48  C   -0.165642
    49  H    0.325217
    50  H    0.112555
    51  H    0.099195
    52  H    0.116190
    53  C    0.589203
    54  C   -0.251265
    55  O   -0.609313
    56  O   -0.577375
    57  C   -0.307838
    58  H    0.110722
    59  H    0.108435
    60  H    0.076177
    61  H    0.107668
    62  H    0.120919
    63  N   -0.546514
    64  C   -0.176082
    65  C    0.531553
    66  H    0.297821
    67  H    0.110399
    68  H    0.103671
    69  H    0.139344
    70  C   -0.400415
    71  O   -0.527669
    72  H    0.129522
    73  H    0.135942
    74  H    0.107410
    75  O   -0.658563
    76  H    0.301267
    77  H    0.344504
    78  H    0.397629
    79  H    0.395374
 Sum of Mulliken charges =  -1.00000

 Dipole moment (field-independent basis, Debye):
    X=              5.3855    Y=              4.2050    Z=              5.1564  Tot=              8.5600
 Quadrupole moment (field-independent basis, Debye-Ang):
   XX=           -377.6322   YY=           -286.2485   ZZ=           -229.9356
   XY=              2.8333   XZ=             -1.1510   YZ=              1.4480

 Normal termination of Gaussian 09 at Wed Aug 26 15:34:41 2020.
