 Gaussian 09, Revision D.01,
 Gaussian 09:  EM64L-G09RevD.01 24-Apr-2013

 -----------------------------------------------
 #p b3lyp/6-311+g(2d,2p) empiricaldispersion=gd3
 -----------------------------------------------

 -------------------
 Title Card Required
 -------------------
 Symbolic Z-matrix:
 Charge = -1 Multiplicity = 1

                         Standard orientation:
 ---------------------------------------------------------------------
 Center     Atomic      Atomic             Coordinates (Angstroms)
 Number     Number       Type             X           Y           Z
 ---------------------------------------------------------------------
      1          6           0       -3.804419    3.404113   -1.216440
      2          6           0       -2.582193    3.378651   -0.297252
      3          7           0       -4.741142    2.434232   -1.082251
      4          6           0       -2.370060    2.255590    0.713719
      5          1           0       -1.706333    3.439796   -0.953004
      6          1           0       -2.620657    4.339286    0.233808
      7          8           0       -3.930264    4.326253   -2.025525
      8          6           0       -5.932136    2.496553   -1.910990
      9          1           0       -4.601094    1.630788   -0.463411
     10          1           0       -1.615946    2.585414    1.447643
     11          8           0       -1.918433    1.070929    0.094008
     12          1           0       -3.293140    2.049599    1.271846
     13          1           0       -5.671973    2.523411   -2.974743
     14          1           0       -6.514024    3.400195   -1.696505
     15          1           0       -6.547161    1.616705   -1.711209
     16          6           0       -3.080677   -0.314774    0.155159
     17          6           0       -2.946921   -0.757613   -1.285601
     18          8           0       -2.360648   -1.197742    0.967098
     19          8           0       -4.173007    0.151187    0.591401
     20          1           0       -1.913920   -1.011934   -1.527314
     21          1           0       -3.584388   -1.635361   -1.434296
     22          1           0       -3.290038    0.050394   -1.931845
     23          6           0       -2.477891   -0.947320    2.363231
     24          1           0       -1.950246   -1.761347    2.865661
     25          1           0       -2.009745    0.009986    2.626277
     26          1           0       -3.523301   -0.924043    2.684461
     27          7           0        0.419615    0.707571    0.815451
     28          6           0        1.362235    1.406701    0.185263
     29          6           0        1.045391    0.025287    1.838464
     30          7           0        2.556888    1.201251    0.752305
     31          1           0        1.188078    2.047547   -0.665300
     32          6           0        2.388941    0.324953    1.808030
     33          1           0        0.497876   -0.626386    2.500640
     34          6           0        3.532952   -0.156075    2.649276
     35          6           0        4.361827    0.976247    3.285533
     36          1           0        3.123225   -0.806250    3.430724
     37          1           0        4.196830   -0.781626    2.041709
     38          1           0        5.210356    0.557182    3.835029
     39          1           0        3.756455    1.566463    3.982464
     40          1           0        4.748057    1.652526    2.518575
     41          6           0       -7.465869   -0.876228   -0.163904
     42          6           0       -6.926927   -2.256598    0.200673
     43          1           0       -6.750497   -0.073745    0.028825
     44          1           0       -8.384926   -0.692941    0.400380
     45          1           0       -7.732649   -0.877788   -1.225286
     46          7           0       -5.660929   -2.244572    0.681838
     47          8           0       -7.596765   -3.278811    0.051481
     48          6           0       -4.945644   -3.457871    1.014426
     49          1           0       -5.167738   -1.353076    0.749797
     50          1           0       -5.251562   -4.261174    0.338646
     51          1           0       -5.152299   -3.792152    2.040733
     52          1           0       -3.874143   -3.271402    0.914384
     53          6           0        5.652250    1.397497   -0.120522
     54          6           0        7.123235    1.824110   -0.122184
     55          8           0        4.806923    2.307484    0.139917
     56          8           0        5.371992    0.186557   -0.337870
     57          6           0        8.071513    0.798973   -0.737024
     58          1           0        7.392178    2.021620    0.924445
     59          1           0        7.185000    2.792895   -0.630119
     60          1           0        9.111816    1.139842   -0.685868
     61          1           0        7.824022    0.617857   -1.787729
     62          1           0        7.994911   -0.161310   -0.220635
     63          7           0        3.549669   -1.773618   -1.372002
     64          6           0        2.106002   -1.864823   -1.232070
     65          6           0        4.208829   -2.542062   -2.294568
     66          1           0        4.024376   -0.945591   -1.005560
     67          1           0        1.814783   -1.573993   -0.220879
     68          1           0        1.576488   -1.219024   -1.945876
     69          1           0        1.798697   -2.894454   -1.421612
     70          6           0        5.704649   -2.274127   -2.393550
     71          8           0        3.652513   -3.419420   -2.952434
     72          1           0        5.922057   -1.203058   -2.393678
     73          1           0        6.207884   -2.690377   -1.514913
     74          1           0        6.084471   -2.750757   -3.297751
     75          8           0        5.759951   -2.224916    0.933957
     76          1           0        4.958800   -2.536695    0.488655
     77          1           0        5.852432   -1.332113    0.543488
     78          1           0        3.502372    1.660830    0.441231
     79          1           0       -0.732701    0.780924    0.496440
 ---------------------------------------------------------------------

 SCF Done:  E(RB3LYP) =  -1778.41524836     A.U. after   14 cycles

 The electronic state is 1-A.
 Alpha  occ. eigenvalues --  -19.06849 -19.02906 -19.01960 -19.00526 -19.00485
 Alpha  occ. eigenvalues --  -19.00420 -19.00013 -18.99820 -18.99799 -14.28384
 Alpha  occ. eigenvalues --  -14.27639 -14.24692 -14.24471 -14.24058 -10.23206
 Alpha  occ. eigenvalues --  -10.19382 -10.18537 -10.18349 -10.18107 -10.17537
 Alpha  occ. eigenvalues --  -10.14557 -10.14416 -10.13538 -10.13355 -10.12140
 Alpha  occ. eigenvalues --  -10.11756 -10.10992 -10.10719 -10.09583 -10.09386
 Alpha  occ. eigenvalues --  -10.09320 -10.09103 -10.08526 -10.08482 -10.07820
 Alpha  occ. eigenvalues --   -1.00600  -0.97134  -0.96364  -0.94800  -0.94746
 Alpha  occ. eigenvalues --   -0.94438  -0.92246  -0.90878  -0.90531  -0.87964
 Alpha  occ. eigenvalues --   -0.83509  -0.83257  -0.82712  -0.82254  -0.72668
 Alpha  occ. eigenvalues --   -0.69324  -0.69274  -0.67638  -0.67083  -0.66906
 Alpha  occ. eigenvalues --   -0.66072  -0.62019  -0.61539  -0.60579  -0.59602
 Alpha  occ. eigenvalues --   -0.57552  -0.57089  -0.55802  -0.54593  -0.53286
 Alpha  occ. eigenvalues --   -0.50109  -0.49958  -0.49182  -0.48705  -0.48321
 Alpha  occ. eigenvalues --   -0.45331  -0.44220  -0.43205  -0.42609  -0.42099
 Alpha  occ. eigenvalues --   -0.41858  -0.41538  -0.40758  -0.39800  -0.39686
 Alpha  occ. eigenvalues --   -0.39180  -0.38662  -0.38532  -0.38413  -0.38345
 Alpha  occ. eigenvalues --   -0.38050  -0.37831  -0.37599  -0.37331  -0.37220
 Alpha  occ. eigenvalues --   -0.36771  -0.36727  -0.36279  -0.34889  -0.34717
 Alpha  occ. eigenvalues --   -0.34325  -0.34317  -0.33776  -0.33412  -0.33204
 Alpha  occ. eigenvalues --   -0.32741  -0.32247  -0.31980  -0.31643  -0.31469
 Alpha  occ. eigenvalues --   -0.31306  -0.31260  -0.31079  -0.31008  -0.30689
 Alpha  occ. eigenvalues --   -0.30675  -0.29797  -0.29701  -0.29649  -0.29093
 Alpha  occ. eigenvalues --   -0.28535  -0.28085  -0.27514  -0.27308  -0.26975
 Alpha  occ. eigenvalues --   -0.26901  -0.26547  -0.25867  -0.23754  -0.21807
 Alpha  occ. eigenvalues --   -0.21414  -0.20165  -0.19708  -0.19434  -0.18954
 Alpha  occ. eigenvalues --   -0.18487  -0.18267  -0.17566  -0.17482  -0.17360
 Alpha  occ. eigenvalues --   -0.17154  -0.17116  -0.16787  -0.16446
 Alpha virt. eigenvalues --    0.06029   0.06537   0.06794   0.07122   0.07649
 Alpha virt. eigenvalues --    0.07774   0.07963   0.08501   0.08893   0.09119
 Alpha virt. eigenvalues --    0.09372   0.09532   0.09735   0.09909   0.10024

 Mulliken charges:
               1
     1  C    0.159868
     2  C    0.119905
     3  N   -0.306628
     4  C   -0.130423
     5  H    0.093817
     6  H    0.087940
     7  O   -0.576073
     8  C   -0.154083
     9  H    0.303014
    10  H    0.114970
    11  O   -0.406883
    12  H    0.125232
    13  H    0.108812
    14  H    0.097997
    15  H    0.103491
    16  C   -0.060177
    17  C   -0.126946
    18  O   -0.327159
    19  O   -0.607417
    20  H    0.124800
    21  H    0.120160
    22  H    0.129152
    23  C   -0.062938
    24  H    0.121120
    25  H    0.115739
    26  H    0.134072
    27  N   -0.445731
    28  C    0.295374
    29  C   -0.130409
    30  N   -0.379258
    31  H    0.149104
    32  C    0.111583
    33  H    0.114737
    34  C   -0.384259
    35  C   -0.440843
    36  H    0.074888
    37  H    0.166187
    38  H    0.094507
    39  H    0.087047
    40  H    0.123203
    41  C   -0.249802
    42  C    0.300001
    43  H    0.107086
    44  H    0.097368
    45  H    0.100341
    46  N   -0.253737
    47  O   -0.561943
    48  C   -0.199477
    49  H    0.297998
    50  H    0.114731
    51  H    0.089277
    52  H    0.118923
    53  C    0.545602
    54  C   -0.027885
    55  O   -0.609576
    56  O   -0.706703
    57  C   -0.371906
    58  H    0.081790
    59  H    0.086564
    60  H    0.088316
    61  H    0.095032
    62  H    0.108106
    63  N   -0.420457
    64  C   -0.185217
    65  C    0.353436
    66  H    0.336620
    67  H    0.129437
    68  H    0.093070
    69  H    0.126392
    70  C   -0.306172
    71  O   -0.539765
    72  H    0.107279
    73  H    0.126048
    74  H    0.108348
    75  O   -0.483738
    76  H    0.205369
    77  H    0.283216
    78  H    0.498223
    79  H    0.580310
 Sum of Mulliken charges =  -1.00000

 Dipole moment (field-independent basis, Debye):
    X=              1.5819    Y=              3.3396    Z=              5.7945  Tot=              6.8725
 Quadrupole moment (field-independent basis, Debye-Ang):
   XX=           -380.8306   YY=           -296.3316   ZZ=           -238.0246
   XY=              1.7581   XZ=             -3.2428   YZ=             -1.2957

 Normal termination of Gaussian 09 at Thu Aug 27 10:26:36 2020.
