 Gaussian 09, Revision D.01,
 Gaussian 09:  EM64L-G09RevD.01 24-Apr-2013

 ----------------------------------------------------------------------
 #p opt=(calcfc,ts,modredundant,noeigentest) rb3lyp/6-31g(d,p) geom=con
 nectivity empiricaldispersion=gd3
 ----------------------------------------------------------------------

 -----
 TITLE
 -----
 Symbolic Z-matrix:
 Charge = -1 Multiplicity = 1

 SCF Done:  E(RB3LYP) =  -1777.86050983     A.U. after   14 cycles

  Exact polarizability:   0.000   0.000   0.000   0.000   0.000   0.000
 Approx polarizability: 452.533  24.124 428.145  18.607 -12.700 375.420

 SCF Done:  E(RB3LYP) =  -1777.86098447     A.U. after   11 cycles
 SCF Done:  E(RB3LYP) =  -1777.86132851     A.U. after   10 cycles
 SCF Done:  E(RB3LYP) =  -1777.86157174     A.U. after   10 cycles
 SCF Done:  E(RB3LYP) =  -1777.86181371     A.U. after   11 cycles
 SCF Done:  E(RB3LYP) =  -1777.86195021     A.U. after   10 cycles
 SCF Done:  E(RB3LYP) =  -1777.86202563     A.U. after   10 cycles
 SCF Done:  E(RB3LYP) =  -1777.86207719     A.U. after   10 cycles
 SCF Done:  E(RB3LYP) =  -1777.86210214     A.U. after   10 cycles
 SCF Done:  E(RB3LYP) =  -1777.86211185     A.U. after   10 cycles
 SCF Done:  E(RB3LYP) =  -1777.86211195     A.U. after    7 cycles
 SCF Done:  E(RB3LYP) =  -1777.86211183     A.U. after    7 cycles
 SCF Done:  E(RB3LYP) =  -1777.86176180     A.U. after   11 cycles
 SCF Done:  E(RB3LYP) =  -1777.86203837     A.U. after   11 cycles
 SCF Done:  E(RB3LYP) =  -1777.86209894     A.U. after   12 cycles
 SCF Done:  E(RB3LYP) =  -1777.86211202     A.U. after    9 cycles
 SCF Done:  E(RB3LYP) =  -1777.86211200     A.U. after    7 cycles
 SCF Done:  E(RB3LYP) =  -1777.86211203     A.U. after    6 cycles
 Optimization completed.
    -- Stationary point found.

                         Standard orientation:
 ---------------------------------------------------------------------
 Center     Atomic      Atomic             Coordinates (Angstroms)
 Number     Number       Type             X           Y           Z
 ---------------------------------------------------------------------
      1          6           0       -3.804419    3.404113   -1.216440
      2          6           0       -2.582193    3.378651   -0.297252
      3          7           0       -4.741142    2.434232   -1.082251
      4          6           0       -2.370060    2.255590    0.713719
      5          1           0       -1.706333    3.439796   -0.953004
      6          1           0       -2.620657    4.339286    0.233808
      7          8           0       -3.930264    4.326253   -2.025525
      8          6           0       -5.932136    2.496553   -1.910990
      9          1           0       -4.601094    1.630788   -0.463411
     10          1           0       -1.615946    2.585414    1.447643
     11          8           0       -1.918433    1.070929    0.094008
     12          1           0       -3.293140    2.049599    1.271846
     13          1           0       -5.671973    2.523411   -2.974743
     14          1           0       -6.514024    3.400195   -1.696505
     15          1           0       -6.547161    1.616705   -1.711209
     16          6           0       -3.080677   -0.314774    0.155159
     17          6           0       -2.946921   -0.757613   -1.285601
     18          8           0       -2.360648   -1.197742    0.967098
     19          8           0       -4.173007    0.151187    0.591401
     20          1           0       -1.913920   -1.011934   -1.527314
     21          1           0       -3.584388   -1.635361   -1.434296
     22          1           0       -3.290038    0.050394   -1.931845
     23          6           0       -2.477891   -0.947320    2.363231
     24          1           0       -1.950246   -1.761347    2.865661
     25          1           0       -2.009745    0.009986    2.626277
     26          1           0       -3.523301   -0.924043    2.684461
     27          7           0        0.419615    0.707571    0.815451
     28          6           0        1.362235    1.406701    0.185263
     29          6           0        1.045391    0.025287    1.838464
     30          7           0        2.556888    1.201251    0.752305
     31          1           0        1.188078    2.047547   -0.665300
     32          6           0        2.388941    0.324953    1.808030
     33          1           0        0.497876   -0.626386    2.500640
     34          6           0        3.532952   -0.156075    2.649276
     35          6           0        4.361827    0.976247    3.285533
     36          1           0        3.123225   -0.806250    3.430724
     37          1           0        4.196830   -0.781626    2.041709
     38          1           0        5.210356    0.557182    3.835029
     39          1           0        3.756455    1.566463    3.982464
     40          1           0        4.748057    1.652526    2.518575
     41          6           0       -7.465869   -0.876228   -0.163904
     42          6           0       -6.926927   -2.256598    0.200673
     43          1           0       -6.750497   -0.073745    0.028825
     44          1           0       -8.384926   -0.692941    0.400380
     45          1           0       -7.732649   -0.877788   -1.225286
     46          7           0       -5.660929   -2.244572    0.681838
     47          8           0       -7.596765   -3.278811    0.051481
     48          6           0       -4.945644   -3.457871    1.014426
     49          1           0       -5.167738   -1.353076    0.749797
     50          1           0       -5.251562   -4.261174    0.338646
     51          1           0       -5.152299   -3.792152    2.040733
     52          1           0       -3.874143   -3.271402    0.914384
     53          6           0        5.652250    1.397497   -0.120522
     54          6           0        7.123235    1.824110   -0.122184
     55          8           0        4.806923    2.307484    0.139917
     56          8           0        5.371992    0.186557   -0.337870
     57          6           0        8.071513    0.798973   -0.737024
     58          1           0        7.392178    2.021620    0.924445
     59          1           0        7.185000    2.792895   -0.630119
     60          1           0        9.111816    1.139842   -0.685868
     61          1           0        7.824022    0.617857   -1.787729
     62          1           0        7.994911   -0.161310   -0.220635
     63          7           0        3.549669   -1.773618   -1.372002
     64          6           0        2.106002   -1.864823   -1.232070
     65          6           0        4.208829   -2.542062   -2.294568
     66          1           0        4.024376   -0.945591   -1.005560
     67          1           0        1.814783   -1.573993   -0.220879
     68          1           0        1.576488   -1.219024   -1.945876
     69          1           0        1.798697   -2.894454   -1.421612
     70          6           0        5.704649   -2.274127   -2.393550
     71          8           0        3.652513   -3.419420   -2.952434
     72          1           0        5.922057   -1.203058   -2.393678
     73          1           0        6.207884   -2.690377   -1.514913
     74          1           0        6.084471   -2.750757   -3.297751
     75          8           0        5.759951   -2.224916    0.933957
     76          1           0        4.958800   -2.536695    0.488655
     77          1           0        5.852432   -1.332113    0.543488
     78          1           0        3.502372    1.660830    0.441231
     79          1           0       -0.732701    0.780924    0.496440
 ---------------------------------------------------------------------

 The electronic state is 1-A.
 Alpha  occ. eigenvalues --  -19.08449 -19.04616 -19.03040 -19.02310 -19.02104
 Alpha  occ. eigenvalues --  -19.01963 -19.01119 -19.01032 -19.00954 -14.29868
 Alpha  occ. eigenvalues --  -14.29204 -14.25756 -14.25532 -14.25184 -10.23711
 Alpha  occ. eigenvalues --  -10.19854 -10.18925 -10.18695 -10.18518 -10.18514
 Alpha  occ. eigenvalues --  -10.15634 -10.15167 -10.14332 -10.14268 -10.13125
 Alpha  occ. eigenvalues --  -10.12708 -10.11933 -10.11642 -10.10306 -10.10271
 Alpha  occ. eigenvalues --  -10.10269 -10.10249 -10.09674 -10.09387 -10.08691
 Alpha  occ. eigenvalues --   -0.99250  -0.95752  -0.95104  -0.92988  -0.92907
 Alpha  occ. eigenvalues --   -0.92673  -0.90868  -0.89136  -0.88893  -0.86291
 Alpha  occ. eigenvalues --   -0.81942  -0.81698  -0.81261  -0.81160  -0.71723
 Alpha  occ. eigenvalues --   -0.68344  -0.68154  -0.66547  -0.65993  -0.65977
 Alpha  occ. eigenvalues --   -0.64945  -0.60948  -0.60631  -0.59546  -0.58559
 Alpha  occ. eigenvalues --   -0.56649  -0.56094  -0.54721  -0.53493  -0.52261
 Alpha  occ. eigenvalues --   -0.48674  -0.48435  -0.47668  -0.47463  -0.47265
 Alpha  occ. eigenvalues --   -0.44029  -0.42848  -0.41789  -0.41291  -0.40527
 Alpha  occ. eigenvalues --   -0.40456  -0.40232  -0.39532  -0.38590  -0.38281
 Alpha  occ. eigenvalues --   -0.37917  -0.37480  -0.37203  -0.36945  -0.36888
 Alpha  occ. eigenvalues --   -0.36769  -0.36500  -0.36307  -0.36007  -0.35974
 Alpha  occ. eigenvalues --   -0.35552  -0.35467  -0.35121  -0.33634  -0.33336
 Alpha  occ. eigenvalues --   -0.33170  -0.33131  -0.32498  -0.32308  -0.32027
 Alpha  occ. eigenvalues --   -0.31502  -0.30824  -0.30745  -0.30386  -0.30184
 Alpha  occ. eigenvalues --   -0.30090  -0.29905  -0.29839  -0.29742  -0.29324
 Alpha  occ. eigenvalues --   -0.29105  -0.28591  -0.28341  -0.28049  -0.27956
 Alpha  occ. eigenvalues --   -0.27248  -0.26479  -0.26025  -0.25772  -0.25577
 Alpha  occ. eigenvalues --   -0.25549  -0.25150  -0.24477  -0.22576  -0.20286
 Alpha  occ. eigenvalues --   -0.19115  -0.18532  -0.17857  -0.17776  -0.17293
 Alpha  occ. eigenvalues --   -0.16801  -0.16424  -0.16214  -0.15618  -0.15507
 Alpha  occ. eigenvalues --   -0.15415  -0.15171  -0.14797  -0.14535
 Alpha virt. eigenvalues --    0.08899   0.11599   0.12142   0.12311   0.12374
 Alpha virt. eigenvalues --    0.12917   0.14285   0.15526   0.16316   0.16980
 Alpha virt. eigenvalues --    0.17596   0.18512   0.18860   0.19134   0.19461

 Mulliken charges:
               1
     1  C    0.567406
     2  C   -0.249256
     3  N   -0.554671
     4  C    0.040444
     5  H    0.115334
     6  H    0.104810
     7  O   -0.556809
     8  C   -0.158934
     9  H    0.317143
    10  H    0.062845
    11  O   -0.641881
    12  H    0.106347
    13  H    0.117906
    14  H    0.111299
    15  H    0.099355
    16  C    0.709179
    17  C   -0.328555
    18  O   -0.491247
    19  O   -0.624843
    20  H    0.112264
    21  H    0.108914
    22  H    0.117664
    23  C   -0.076801
    24  H    0.097353
    25  H    0.098037
    26  H    0.115699
    27  N   -0.543447
    28  C    0.286483
    29  C    0.013230
    30  N   -0.533805
    31  H    0.141463
    32  C    0.269524
    33  H    0.102506
    34  C   -0.244066
    35  C   -0.333085
    36  H    0.089351
    37  H    0.144139
    38  H    0.097155
    39  H    0.090585
    40  H    0.135637
    41  C   -0.404862
    42  C    0.549122
    43  H    0.128694
    44  H    0.117619
    45  H    0.122378
    46  N   -0.541476
    47  O   -0.545685
    48  C   -0.174769
    49  H    0.315120
    50  H    0.124946
    51  H    0.096747
    52  H    0.121742
    53  C    0.590659
    54  C   -0.250014
    55  O   -0.609411
    56  O   -0.584492
    57  C   -0.307288
    58  H    0.107441
    59  H    0.103958
    60  H    0.072354
    61  H    0.104532
    62  H    0.121696
    63  N   -0.545199
    64  C   -0.173636
    65  C    0.530278
    66  H    0.300640
    67  H    0.113723
    68  H    0.102872
    69  H    0.132382
    70  C   -0.400446
    71  O   -0.532200
    72  H    0.130702
    73  H    0.136001
    74  H    0.104520
    75  O   -0.661992
    76  H    0.299619
    77  H    0.346221
    78  H    0.376805
    79  H    0.446025
 Sum of Mulliken charges =  -1.00000

 Dipole moment (field-independent basis, Debye):
    X=              1.1916    Y=              3.3436    Z=              5.4434  Tot=              6.4984
 Quadrupole moment (field-independent basis, Debye-Ang):
   XX=           -371.9691   YY=           -284.5422   ZZ=           -230.1073
   XY=              3.0371   XZ=             -3.2907   YZ=             -0.9699

 Normal termination of Gaussian 09 at Sat Aug 22 22:09:38 2020.
