 Gaussian 16, Revision C.01,
 Gaussian 16:  ES64L-G16RevC.01  3-Jul-2019

 --------------------------------
 #p freq=noraman b3lyp/6-31g(d,p)
 --------------------------------

 -------------------
 Title Card Required
 -------------------
 Symbolic Z-matrix:
 Charge =  0 Multiplicity = 1

                         Standard orientation:
 ---------------------------------------------------------------------
 Center     Atomic      Atomic             Coordinates (Angstroms)
 Number     Number       Type             X           Y           Z
 ---------------------------------------------------------------------
      1          6           0       -1.224982   -0.221845    0.000013
      2          1           0       -1.297761   -0.858905   -0.887158
      3          1           0       -1.297737   -0.858917    0.887178
      4          1           0       -2.074089    0.468615    0.000031
      5          6           0        0.085234    0.547134    0.000002
      6          1           0        0.138995    1.198478    0.885861
      7          1           0        0.138983    1.198473   -0.885861
      8          8           0        1.155737   -0.399706   -0.000003
      9          1           0        1.984203    0.098171   -0.000113
 ---------------------------------------------------------------------

 SCF Done:  E(RB3LYP) =  -155.046178739     A.U. after   12 cycles

 The electronic state is 1-A.
 Alpha  occ. eigenvalues --  -19.13688 -10.22859 -10.17240  -1.00717  -0.74347
 Alpha  occ. eigenvalues --   -0.60549  -0.50800  -0.45834  -0.39470  -0.37775
 Alpha  occ. eigenvalues --   -0.36015  -0.32536  -0.26159
 Alpha virt. eigenvalues --    0.07809   0.11916   0.15730   0.16254   0.17543
 Alpha virt. eigenvalues --    0.19903   0.21210   0.23920   0.52141   0.55260
 Alpha virt. eigenvalues --    0.55554   0.57913   0.66526   0.66619   0.77989

 Mulliken charges:
               1
     1  C   -0.318518
     2  H    0.118242
     3  H    0.118243
     4  H    0.099337
     5  C    0.055302
     6  H    0.080000
     7  H    0.079999
     8  O   -0.536517
     9  H    0.303911
 Sum of Mulliken charges =   0.00000

 Dipole moment (field-independent basis, Debye):
    X=              0.2223    Y=              1.5317    Z=             -0.0002  Tot=              1.5478
 Quadrupole moment (field-independent basis, Debye-Ang):
   XX=            -16.6961   YY=            -20.3528   ZZ=            -19.9159
   XY=              1.9480   XZ=             -0.0004   YZ=             -0.0001

  Exact polarizability:      30.236       0.422      26.112      -0.000      -0.000      24.153
 Approx polarizability:      36.306      -0.684      34.788      -0.001      -0.000      31.732

                      1                      2                      3
                      A                      A                      A
 Frequencies --    257.5277               312.7984               415.1500
 Red. masses --      1.1447                 1.0747                 2.6389
 Frc consts  --      0.0447                 0.0620                 0.2680
 IR Inten    --     15.6762               110.5007                11.1670

                      4                      5                      6
                      A                      A                      A
 Frequencies --    823.3836               903.4639              1036.6895
 Red. masses --      1.0805                 2.2229                 2.2255
 Frc consts  --      0.4316                 1.0690                 1.4092
 IR Inten    --      0.0326                11.8371                56.2294

                      7                      8                      9
                      A                      A                      A
 Frequencies --   1114.7689              1186.2344              1282.5678
 Red. masses --      2.2297                 1.5035                 1.2328
 Frc consts  --      1.6326                 1.2465                 1.1948
 IR Inten    --     23.3567                 4.6847                84.0158

                     10                     11                     12
                      A                      A                      A
 Frequencies --   1302.3294              1414.9434              1469.4637
 Red. masses --      1.1183                 1.2320                 1.4503
 Frc consts  --      1.1175                 1.4532                 1.8452
 IR Inten    --      0.0643                 0.4056                15.4501

                     13                     14                     15
                      A                      A                      A
 Frequencies --   1498.6484              1516.7658              1543.9613
 Red. masses --      1.0403                 1.0475                 1.0886
 Frc consts  --      1.3765                 1.4199                 1.5289
 IR Inten    --      4.0898                 2.7740                 2.2161

                     16                     17                     18
                      A                      A                      A
 Frequencies --   2986.4787              3013.4193              3049.4763
 Red. masses --      1.0556                 1.1079                 1.0352
 Frc consts  --      5.5471                 5.9276                 5.6717
 IR Inten    --     70.3176                71.5147                15.3380

                     19                     20                     21
                      A                      A                      A
 Frequencies --   3125.4965              3126.3446              3807.2409
 Red. masses --      1.1023                 1.1038                 1.0664
 Frc consts  --      6.3441                 6.3562                 9.1077
 IR Inten    --     30.1547                33.9100                11.3668

 - Thermochemistry -
 -------------------
 Temperature   298.150 Kelvin.  Pressure   1.00000 Atm.
 Atom     1 has atomic number  6 and mass  12.00000

 Molecular mass:    46.04186 amu.
 Principal axes and moments of inertia in atomic units:
                           1         2         3
     Eigenvalues --    51.47199 193.95849 222.80255
           X            0.99908   0.04277   0.00001
           Y           -0.04277   0.99908   0.00000
           Z           -0.00001  -0.00001   1.00000
 This molecule is an asymmetric top.
 Rotational symmetry number  1.
 Rotational temperatures (Kelvin)      1.68274     0.44656     0.38875
 Rotational constants (GHZ):          35.06259     9.30478     8.10018
 Zero-point vibrational energy     210465.9 (Joules/Mol)
                                   50.30256 (Kcal/Mol)
 Warning -- explicit consideration of   3 degrees of freedom as
           vibrations may cause significant error
 Vibrational temperatures:    370.52   450.05   597.31  1184.67  1299.88
          (Kelvin)           1491.56  1603.90  1706.73  1845.33  1873.76
                             2035.79  2114.23  2156.22  2182.29  2221.42
                             4296.88  4335.64  4387.52  4496.89  4498.11
                             5477.77

 Zero-point correction=                           0.080162 (Hartree/Particle)
 Thermal correction to Energy=                    0.084418
 Thermal correction to Enthalpy=                  0.085362
 Thermal correction to Gibbs Free Energy=         0.054814
 Sum of electronic and zero-point Energies=           -154.966017
 Sum of electronic and thermal Energies=              -154.961761
 Sum of electronic and thermal Enthalpies=            -154.960817
 Sum of electronic and thermal Free Energies=         -154.991365

                     E (Thermal)             CV                S
                      KCal/Mol        Cal/Mol-Kelvin    Cal/Mol-Kelvin
 Total                   52.973             13.425             64.294
 Electronic               0.000              0.000              0.000
 Translational            0.889              2.981             37.406
 Rotational               0.889              2.981             22.324
 Vibrational             51.196              7.464              4.564
 Vibration     1          0.667              1.750              1.678
 Vibration     2          0.701              1.649              1.347
 Vibration     3          0.779              1.437              0.909

 Normal termination of Gaussian 16 at Fri Nov 13 13:13:26 2020.
