 Gaussian 16, Revision B.01,
 Gaussian 16:  ES64L-G16RevB.01 20-Dec-2017

 ----------------------------------------------------------------------
 # Opt=(modredundant, MaxCycle=500) Freq B3LYP/6-31+G(d,p) empiricaldis
 persion=gd3 NoSymm
 ----------------------------------------------------------------------

 -----------
 HS_2_63 Opt
 -----------
 Symbolic Z-matrix:
 Charge = -1 Multiplicity = 1

 SCF Done:  E(RB3LYP) =  -1356.64671549     A.U. after   18 cycles
 SCF Done:  E(RB3LYP) =  -1356.66362716     A.U. after   15 cycles
 SCF Done:  E(RB3LYP) =  -1356.68808660     A.U. after   14 cycles
 SCF Done:  E(RB3LYP) =  -1356.69105081     A.U. after   13 cycles
 SCF Done:  E(RB3LYP) =  -1356.69973359     A.U. after   13 cycles
 SCF Done:  E(RB3LYP) =  -1356.70081914     A.U. after   12 cycles
 SCF Done:  E(RB3LYP) =  -1356.70086059     A.U. after    8 cycles
 SCF Done:  E(RB3LYP) =  -1356.70749564     A.U. after   13 cycles
 SCF Done:  E(RB3LYP) =  -1356.71001224     A.U. after   13 cycles
 SCF Done:  E(RB3LYP) =  -1356.71258872     A.U. after   12 cycles
 SCF Done:  E(RB3LYP) =  -1356.75199327     A.U. after   10 cycles
 SCF Done:  E(RB3LYP) =  -1356.75199633     A.U. after    9 cycles
 SCF Done:  E(RB3LYP) =  -1356.75199759     A.U. after    9 cycles
 SCF Done:  E(RB3LYP) =  -1356.75199839     A.U. after   10 cycles
 SCF Done:  E(RB3LYP) =  -1356.75199882     A.U. after   10 cycles
 SCF Done:  E(RB3LYP) =  -1356.75199899     A.U. after    9 cycles
 SCF Done:  E(RB3LYP) =  -1356.75199928     A.U. after    9 cycles
 SCF Done:  E(RB3LYP) =  -1356.75199943     A.U. after    9 cycles
 SCF Done:  E(RB3LYP) =  -1356.75199952     A.U. after    7 cycles
 Optimization completed.
    -- Stationary point found.
 Normal termination of Gaussian 16 at Wed Feb  9 11:17:05 2022.

 ----------------------------------------------------------------------
 #N Geom=AllCheck Guess=TCheck SCRF=Check GenChk RB3LYP/6-31+G(d,p) Fre
 q
 ----------------------------------------------------------------------

 Structure from the checkpoint file:  "HS_2_63.chk"
 -----------
 HS_2_63 Opt
 -----------
 Charge = -1 Multiplicity = 1

                          Input orientation:
 ---------------------------------------------------------------------
 Center     Atomic      Atomic             Coordinates (Angstroms)
 Number     Number       Type             X           Y           Z
 ---------------------------------------------------------------------
      1          6           0       15.397416    1.117680   27.093994
      2          7           0       14.546898    2.609577   25.471935
      3          8           0       11.159207    1.908865   26.550048
      4          6           0       13.890753    0.809367   26.957928
      5          8           0       12.283539    3.788744   25.937703
      6          6           0       13.401877    1.683437   25.780820
      7          6           0       15.512193    2.564289   26.601986
      8          6           0       12.143836    2.531707   26.111553
      9          1           0       15.988289    0.463678   26.443959
     10          1           0       15.766258    1.005958   28.118788
     11          1           0       13.697333   -0.250015   26.774494
     12          1           0       13.351032    1.087673   27.867398
     13          1           0       13.297560    1.126196   24.832908
     14          1           0       14.944012    2.196839   24.538237
     15          1           0       15.179553    3.272730   27.367685
     16          1           0       16.508624    2.842036   26.247681
     17          1           0       14.092819    3.532221   25.347909
     18          6           0       13.670988   -1.516972   23.510040
     19          6           0       14.972918   -0.738254   23.735245
     20         16           0       14.951909    0.954416   22.991646
     21          1           0       13.730427   -2.529802   23.939658
     22          1           0       13.460582   -1.605798   22.438587
     23          1           0       12.819474   -1.001237   23.967668
     24          1           0       15.169282   -0.681779   24.814565
     25          1           0       15.810077   -1.301500   23.302592
     26          6           0       11.786012    2.922972   29.784960
     27          6           0       11.868682    4.449173   29.795976
     28         16           0       13.207828    5.149007   28.733202
     29          1           0       12.745580    2.479238   30.073904
     30          1           0       11.021850    2.583049   30.498037
     31          1           0       11.509466    2.550759   28.793903
     32          1           0       10.917372    4.886069   29.476676
     33          1           0       12.083757    4.825949   30.802234
     34          1           0       12.725888    4.680929   27.537712
 ---------------------------------------------------------------------

 SCF Done:  E(RB3LYP) =  -1356.75199952     A.U. after    1 cycles

 Alpha  occ. eigenvalues --  -88.75955 -88.66751 -18.98740 -18.97747 -14.29414
 Alpha  occ. eigenvalues --  -10.15840 -10.13990 -10.12117 -10.11031 -10.10630
 Alpha  occ. eigenvalues --  -10.09359 -10.08109 -10.07928 -10.06288  -7.82148
 Alpha  occ. eigenvalues --   -7.72863  -5.78623  -5.78252  -5.77704  -5.69436
 Alpha  occ. eigenvalues --   -5.68702  -5.68603  -0.91364  -0.86846  -0.82405
 Alpha  occ. eigenvalues --   -0.69294  -0.69161  -0.64945  -0.64380  -0.59365
 Alpha  occ. eigenvalues --   -0.53460  -0.52417  -0.50551  -0.49961  -0.46676
 Alpha  occ. eigenvalues --   -0.44171  -0.42298  -0.38608  -0.37020  -0.36390
 Alpha  occ. eigenvalues --   -0.33733  -0.32953  -0.32276  -0.31612  -0.30536
 Alpha  occ. eigenvalues --   -0.29928  -0.29702  -0.28916  -0.27747  -0.27480
 Alpha  occ. eigenvalues --   -0.26599  -0.26325  -0.25389  -0.25075  -0.24669
 Alpha  occ. eigenvalues --   -0.23080  -0.22860  -0.21168  -0.17572  -0.13673
 Alpha  occ. eigenvalues --   -0.13411  -0.12828  -0.11605  -0.06761  -0.05666
 Alpha virt. eigenvalues --    0.08503   0.09069   0.09915   0.10709   0.11097
 Alpha virt. eigenvalues --    0.12275   0.12493   0.12705   0.13617   0.13961
 Alpha virt. eigenvalues --    0.14424   0.14681   0.15429   0.16106   0.16524

 Mulliken charges:
               1
     1  C   -0.197774
     2  N   -0.323721
     3  O   -0.484775
     4  C   -0.387368
     5  O   -0.537182
     6  C    0.529673
     7  C   -0.290345
     8  C   -0.350829
     9  H    0.162374
    10  H    0.133007
    11  H    0.147801
    12  H    0.159034
    13  H    0.185142
    14  H    0.262945
    15  H    0.186336
    16  H    0.142228
    17  H    0.381873
    18  C   -0.453726
    19  C   -0.268981
    20  S   -0.598393
    21  H    0.105392
    22  H    0.145947
    23  H    0.150020
    24  H    0.115554
    25  H    0.135942
    26  C   -0.425188
    27  C   -0.368322
    28  S   -0.171459
    29  H    0.134482
    30  H    0.122060
    31  H    0.218422
    32  H    0.177076
    33  H    0.149373
    34  H    0.113383
 Sum of Mulliken charges =  -1.00000

 Dipole moment (field-independent basis, Debye):
    X=            -61.7775    Y=            -10.8965    Z=           -118.3863  Tot=            133.9795
 Quadrupole moment (field-independent basis, Debye-Ang):
   XX=           -922.5433   YY=           -156.2828   ZZ=          -3055.9803
   XY=           -133.8248   XZ=          -1503.8818   YZ=           -288.8798

  Exact polarizability: 175.291   1.685 193.295 -16.583  18.767 192.246
 Approx polarizability: 249.710  13.911 269.921 -11.347  -0.661 252.121

                      1                      2                      3
                      A                      A                      A
 Frequencies --     15.0698                20.9172                31.2174
 Red. masses --      5.2085                 4.0937                 4.0882
 Frc consts  --      0.0007                 0.0011                 0.0023
 IR Inten    --      0.9439                 0.3334                 2.3523

                      4                      5                      6
                      A                      A                      A
 Frequencies --     41.7535                48.5761                60.0881
 Red. masses --      6.3270                 2.9985                 5.0334
 Frc consts  --      0.0065                 0.0042                 0.0107
 IR Inten    --      2.9020                 0.0341                 7.0078

                      7                      8                      9
                      A                      A                      A
 Frequencies --     73.6738                92.2340               113.1190
 Red. masses --      4.5882                 2.4757                 3.2128
 Frc consts  --      0.0147                 0.0124                 0.0242
 IR Inten    --      2.7215                 3.1057                 2.3823

                     10                     11                     12
                      A                      A                      A
 Frequencies --    117.7181               128.2446               134.3923
 Red. masses --      2.9888                 3.2989                 2.6408
 Frc consts  --      0.0244                 0.0320                 0.0281
 IR Inten    --      6.7217                12.9116                 3.7149

                     13                     14                     15
                      A                      A                      A
 Frequencies --    167.9809               216.0076               227.7280
 Red. masses --     10.6227                 4.5185                 2.3435
 Frc consts  --      0.1766                 0.1242                 0.0716
 IR Inten    --     29.4535                 5.9750                53.2247

                     16                     17                     18
                      A                      A                      A
 Frequencies --    272.4235               290.2682               301.7062
 Red. masses --      1.4383                 2.3254                 1.0862
 Frc consts  --      0.0629                 0.1154                 0.0583
 IR Inten    --      2.4269                36.7660                 0.2673

                     19                     20                     21
                      A                      A                      A
 Frequencies --    333.0073               337.1464               342.5364
 Red. masses --      3.2132                 3.0785                 2.8202
 Frc consts  --      0.2099                 0.2062                 0.1950
 IR Inten    --     13.2021                 1.0348                78.6244

                     22                     23                     24
                      A                      A                      A
 Frequencies --    469.1186               559.0141               568.8542
 Red. masses --      5.2441                 2.0490                 1.1603
 Frc consts  --      0.6800                 0.3772                 0.2212
 IR Inten    --     27.9012                16.7014                51.4997

                     25                     26                     27
                      A                      A                      A
 Frequencies --    630.1302               652.1157               656.4508
 Red. masses --      3.0898                 4.4808                 4.5067
 Frc consts  --      0.7228                 1.1227                 1.1442
 IR Inten    --      7.6132                 4.4862                 6.3908

                     28                     29                     30
                      A                      A                      A
 Frequencies --    681.4164               764.6828               770.6201
 Red. masses --      4.2434                 1.1758                 3.4184
 Frc consts  --      1.1609                 0.4051                 1.1961
 IR Inten    --      5.8854                 4.1613                 9.4817

                     31                     32                     33
                      A                      A                      A
 Frequencies --    775.2020               837.2924               867.2486
 Red. masses --      1.1924                 3.7387                 1.9126
 Frc consts  --      0.4222                 1.5443                 0.8475
 IR Inten    --      4.7501                59.2303                 0.6830

                     34                     35                     36
                      A                      A                      A
 Frequencies --    907.5580               920.8619               943.5406
 Red. masses --      1.7039                 2.7560                 1.2667
 Frc consts  --      0.8269                 1.3769                 0.6644
 IR Inten    --     28.4747                 0.5881                23.8107

                     37                     38                     39
                      A                      A                      A
 Frequencies --    943.8235               953.2104               973.6733
 Red. masses --      1.5429                 3.4683                 2.1194
 Frc consts  --      0.8098                 1.8567                 1.1838
 IR Inten    --     12.4586                 9.9594                 6.4620

                     40                     41                     42
                      A                      A                      A
 Frequencies --    988.0686              1019.1475              1030.5692
 Red. masses --      2.0953                 1.3059                 1.4461
 Frc consts  --      1.2052                 0.7991                 0.9049
 IR Inten    --      5.8684                 0.7407                14.6647

                     43                     44                     45
                      A                      A                      A
 Frequencies --   1058.4199              1070.1500              1071.1110
 Red. masses --      1.8220                 1.6767                 1.6981
 Frc consts  --      1.2026                 1.1314                 1.1479
 IR Inten    --      0.7158                 3.3209                 6.9377

                     46                     47                     48
                      A                      A                      A
 Frequencies --   1083.1129              1137.0819              1148.4082
 Red. masses --      2.9823                 1.8336                 1.3493
 Frc consts  --      2.0614                 1.3968                 1.0485
 IR Inten    --     21.3671                12.9860                 7.3446

                     49                     50                     51
                      A                      A                      A
 Frequencies --   1199.7562              1204.3888              1264.7169
 Red. masses --      1.2849                 1.3868                 1.2221
 Frc consts  --      1.0897                 1.1853                 1.1517
 IR Inten    --     64.2652                 2.4116                48.7122

                     52                     53                     54
                      A                      A                      A
 Frequencies --   1266.7259              1276.4922              1281.5705
 Red. masses --      1.2388                 1.2482                 1.1765
 Frc consts  --      1.1712                 1.1983                 1.1384
 IR Inten    --      5.5847                62.3486                 4.4803

                     55                     56                     57
                      A                      A                      A
 Frequencies --   1299.7890              1306.1119              1312.0513
 Red. masses --      1.2045                 1.2404                 1.4190
 Frc consts  --      1.1989                 1.2467                 1.4392
 IR Inten    --     12.8438                40.1907                15.2783

                     58                     59                     60
                      A                      A                      A
 Frequencies --   1342.2535              1344.5067              1361.5229
 Red. masses --      1.8623                 1.2814                 1.7663
 Frc consts  --      1.9768                 1.3647                 1.9292
 IR Inten    --    469.0516                52.0464                71.0384

                     61                     62                     63
                      A                      A                      A
 Frequencies --   1372.9590              1392.6716              1405.9527
 Red. masses --      1.5013                 1.2846                 1.2262
 Frc consts  --      1.6674                 1.4679                 1.4281
 IR Inten    --     45.3293                63.4030                11.3744

                     64                     65                     66
                      A                      A                      A
 Frequencies --   1413.7941              1424.9939              1481.0106
 Red. masses --      1.4358                 1.2086                 1.0899
 Frc consts  --      1.6909                 1.4460                 1.4085
 IR Inten    --     41.8683                 2.8629                 0.7740

                     67                     68                     69
                      A                      A                      A
 Frequencies --   1483.8075              1487.8927              1494.8212
 Red. masses --      1.0786                 1.0454                 1.0837
 Frc consts  --      1.3992                 1.3636                 1.4267
 IR Inten    --      2.7083                 3.7211                 2.4412

                     70                     71                     72
                      A                      A                      A
 Frequencies --   1498.3571              1500.3920              1508.9041
 Red. masses --      1.0385                 1.0502                 1.0819
 Frc consts  --      1.3736                 1.3929                 1.4513
 IR Inten    --      8.2013                 1.8279                 4.6128

                     73                     74                     75
                      A                      A                      A
 Frequencies --   1520.0248              1528.9619              1599.6497
 Red. masses --      1.0858                 1.0560                 1.0925
 Frc consts  --      1.4780                 1.4545                 1.6471
 IR Inten    --     10.3377                 5.7264                23.3575

                     76                     77                     78
                      A                      A                      A
 Frequencies --   1690.1458              2326.9437              2393.5827
 Red. masses --      9.7928                 1.0942                 1.0470
 Frc consts  --     16.4819                 3.4907                 3.5341
 IR Inten    --    426.7431              2424.5521               431.5645

                     79                     80                     81
                      A                      A                      A
 Frequencies --   2974.0258              2983.4324              3008.9091
 Red. masses --      1.0834                 1.0504                 1.0558
 Frc consts  --      5.6458                 5.5086                 5.6320
 IR Inten    --     98.8161                84.8543                94.3298

                     82                     83                     84
                      A                      A                      A
 Frequencies --   3010.8341              3033.9942              3047.4377
 Red. masses --      1.0411                 1.1044                 1.0596
 Frc consts  --      5.5604                 5.9896                 5.7977
 IR Inten    --     64.5216                44.2768                45.8046

                     85                     86                     87
                      A                      A                      A
 Frequencies --   3055.7101              3063.2533              3070.8379
 Red. masses --      1.0593                 1.0603                 1.0844
 Frc consts  --      5.8276                 5.8623                 6.0250
 IR Inten    --     29.6789                28.1187                40.2967

                     88                     89                     90
                      A                      A                      A
 Frequencies --   3077.5747              3078.7659              3096.3801
 Red. masses --      1.0749                 1.0856                 1.1033
 Frc consts  --      5.9982                 6.0627                 6.2325
 IR Inten    --     34.1679                24.9628                23.2965

                     91                     92                     93
                      A                      A                      A
 Frequencies --   3098.8863              3103.9106              3120.8933
 Red. masses --      1.1020                 1.1030                 1.1080
 Frc consts  --      6.2350                 6.2611                 6.3582
 IR Inten    --     30.6559                52.3684                16.3572

                     94                     95                     96
                      A                      A                      A
 Frequencies --   3126.7740              3129.1701              3263.9374
 Red. masses --      1.1078                 1.1035                 1.0753
 Frc consts  --      6.3812                 6.3664                 6.7496
 IR Inten    --     18.2350                 9.3090               225.4020

 - Thermochemistry -
 -------------------
 Temperature   298.150 Kelvin.  Pressure   1.00000 Atm.
 Atom     1 has atomic number  6 and mass  12.00000

 Molecular mass:   238.09355 amu.
 Principal axes and moments of inertia in atomic units:
                           1         2         3
     Eigenvalues --  1989.151347682.592697985.99623
           X           -0.30996   0.85967   0.40606
           Y            0.59708   0.50838  -0.62052
           Z            0.73988  -0.05011   0.67087
 This molecule is an asymmetric top.
 Rotational symmetry number  1.
 Warning -- assumption of classical behavior for rotation
           may cause significant error
 Rotational temperatures (Kelvin)      0.04354     0.01127     0.01085
 Rotational constants (GHZ):           0.90729     0.23491     0.22599
 Zero-point vibrational energy     754701.1 (Joules/Mol)
                                  180.37789 (Kcal/Mol)
 Warning -- explicit consideration of  24 degrees of freedom as
           vibrations may cause significant error
 Vibrational temperatures:     21.68    30.10    44.91    60.07    69.89
          (Kelvin)             86.45   106.00   132.70   162.75   169.37
                              184.52   193.36   241.69   310.79   327.65
                              391.96   417.63   434.09   479.12   485.08
                              492.83   674.96   804.30   818.45   906.62
                              938.25   944.49   980.41  1100.21  1108.75
                             1115.34  1204.68  1247.78  1305.77  1324.91
                             1357.54  1357.95  1371.46  1400.90  1421.61
                             1466.33  1482.76  1522.83  1539.71  1541.09
                             1558.36  1636.01  1652.30  1726.18  1732.85
                             1819.65  1822.54  1836.59  1843.89  1870.11
                             1879.20  1887.75  1931.20  1934.45  1958.93
                             1975.38  2003.74  2022.85  2034.13  2050.25
                             2130.84  2134.87  2140.75  2150.71  2155.80
                             2158.73  2170.98  2186.98  2199.84  2301.54
                             2431.74  3347.95  3443.83  4278.96  4292.49
                             4329.15  4331.92  4365.24  4384.58  4396.49
                             4407.34  4418.25  4427.94  4429.66  4455.00
                             4458.61  4465.84  4490.27  4498.73  4502.18
                             4696.08

 Zero-point correction=                           0.287450 (Hartree/Particle)
 Thermal correction to Energy=                    0.306169
 Thermal correction to Enthalpy=                  0.307113
 Thermal correction to Gibbs Free Energy=         0.235836
 Sum of electronic and zero-point Energies=          -1356.464549
 Sum of electronic and thermal Energies=             -1356.445831
 Sum of electronic and thermal Enthalpies=           -1356.444887
 Sum of electronic and thermal Free Energies=        -1356.516164

                     E (Thermal)             CV                S
                      KCal/Mol        Cal/Mol-Kelvin    Cal/Mol-Kelvin
 Total                  192.124             63.984            150.014
 Electronic               0.000              0.000              0.000
 Translational            0.889              2.981             42.304
 Rotational               0.889              2.981             33.167
 Vibrational            190.346             58.022             74.543
 Vibration     1          0.593              1.986              7.196
 Vibration     2          0.593              1.986              6.545
 Vibration     3          0.594              1.983              5.751
 Vibration     4          0.594              1.980              5.174
 Vibration     5          0.595              1.978              4.875
 Vibration     6          0.597              1.973              4.454
 Vibration     7          0.599              1.966              4.053
 Vibration     8          0.602              1.955              3.612
 Vibration     9          0.607              1.939              3.215
 Vibration    10          0.608              1.935              3.137
 Vibration    11          0.611              1.925              2.972
 Vibration    12          0.613              1.919              2.882
 Vibration    13          0.625              1.882              2.458
 Vibration    14          0.645              1.817              1.992
 Vibration    15          0.651              1.799              1.897
 Vibration    16          0.675              1.724              1.581
 Vibration    17          0.686              1.692              1.472
 Vibration    18          0.694              1.670              1.407
 Vibration    19          0.715              1.610              1.245
 Vibration    20          0.718              1.601              1.226
 Vibration    21          0.722              1.590              1.200
 Vibration    22          0.826              1.319              0.740
 Vibration    23          0.915              1.120              0.526
 Vibration    24          0.925              1.099              0.506

                           ! Non-Optimized Parameters !
 Normal termination of Gaussian 16 at Wed Feb  9 11:19:54 2022.
