 Gaussian 09, Revision D.01,
 Gaussian 09:  EM64L-G09RevD.01 24-Apr-2013

 -----------------------------------------------
 #p b3lyp/6-311+g(2d,2p) empiricaldispersion=gd3
 -----------------------------------------------

 -------------------
 Title Card Required
 -------------------
 Symbolic Z-matrix:
 Charge = -1 Multiplicity = 1

                         Standard orientation:
 ---------------------------------------------------------------------
 Center     Atomic      Atomic             Coordinates (Angstroms)
 Number     Number       Type             X           Y           Z
 ---------------------------------------------------------------------
      1          6           0       -3.839584    3.420095   -1.233689
      2          6           0       -2.598433    3.377104   -0.332195
      3          7           0       -4.728983    2.403862   -1.148825
      4          6           0       -2.442955    2.245074    0.681187
      5          1           0       -1.726265    3.393208   -0.996106
      6          1           0       -2.595894    4.340709    0.192290
      7          8           0       -4.002585    4.384608   -1.986333
      8          6           0       -5.932169    2.450208   -1.961205
      9          1           0       -4.558869    1.572420   -0.562340
     10          1           0       -1.678517    2.529174    1.421449
     11          8           0       -2.023771    1.043857    0.041922
     12          1           0       -3.378226    2.060830    1.219490
     13          1           0       -5.687305    2.562901   -3.023214
     14          1           0       -6.566896    3.300005   -1.683135
     15          1           0       -6.489694    1.523056   -1.814196
     16          6           0       -2.964501   -0.201572    0.155581
     17          6           0       -2.743771   -0.891377   -1.187070
     18          8           0       -2.292601   -1.040100    1.133052
     19          8           0       -4.172593    0.144729    0.460630
     20          1           0       -1.687397   -1.115965   -1.357426
     21          1           0       -3.316898   -1.821609   -1.202089
     22          1           0       -3.107930   -0.231410   -1.976682
     23          6           0       -2.560662   -0.681242    2.477770
     24          1           0       -2.166743   -1.485719    3.106683
     25          1           0       -2.060426    0.260171    2.756081
     26          1           0       -3.634503   -0.563894    2.655028
     27          7           0        0.448468    0.644755    0.771723
     28          6           0        1.384036    1.369617    0.153452
     29          6           0        1.053342   -0.031830    1.809307
     30          7           0        2.562684    1.183617    0.747810
     31          1           0        1.205456    2.006318   -0.698532
     32          6           0        2.388043    0.301118    1.800448
     33          1           0        0.492550   -0.694345    2.447847
     34          6           0        3.525314   -0.153181    2.665177
     35          6           0        4.318534    1.000444    3.309720
     36          1           0        3.113923   -0.806792    3.442436
     37          1           0        4.209616   -0.770651    2.071547
     38          1           0        5.159224    0.600459    3.884488
     39          1           0        3.686172    1.586354    3.985646
     40          1           0        4.713659    1.675426    2.546340
     41          6           0       -7.484626   -0.925753   -0.214197
     42          6           0       -6.932715   -2.285274    0.211904
     43          1           0       -6.776636   -0.110514   -0.047662
     44          1           0       -8.410030   -0.733192    0.335632
     45          1           0       -7.740900   -0.970480   -1.277717
     46          7           0       -5.634485   -2.276568    0.592674
     47          8           0       -7.629536   -3.302437    0.190583
     48          6           0       -4.962743   -3.501310    0.985169
     49          1           0       -5.104897   -1.393712    0.583758
     50          1           0       -5.101442   -4.280752    0.228167
     51          1           0       -5.354289   -3.893538    1.932687
     52          1           0       -3.898515   -3.281438    1.097319
     53          6           0        5.645129    1.394030   -0.116923
     54          6           0        7.101263    1.863404   -0.145949
     55          8           0        4.778545    2.285160    0.162972
     56          8           0        5.386650    0.182225   -0.334876
     57          6           0        8.081481    0.837679   -0.710146
     58          1           0        7.365124    2.128163    0.886663
     59          1           0        7.130864    2.805015   -0.705846
     60          1           0        9.109101    1.216258   -0.680473
     61          1           0        7.837281    0.592803   -1.748291
     62          1           0        8.038691   -0.095663   -0.142706
     63          7           0        3.560078   -1.784164   -1.373008
     64          6           0        2.116245   -1.875417   -1.242243
     65          6           0        4.226554   -2.544622   -2.298807
     66          1           0        4.031799   -0.957343   -1.002865
     67          1           0        1.821922   -1.657410   -0.213530
     68          1           0        1.592123   -1.178062   -1.909986
     69          1           0        1.805472   -2.887581   -1.504287
     70          6           0        5.720455   -2.267745   -2.386623
     71          8           0        3.678327   -3.419296   -2.965295
     72          1           0        5.930753   -1.195338   -2.397726
     73          1           0        6.218636   -2.671327   -1.499190
     74          1           0        6.112019   -2.751286   -3.281976
     75          8           0        5.737287   -2.233768    0.956897
     76          1           0        4.941919   -2.539128    0.496711
     77          1           0        5.853667   -1.347858    0.560592
     78          1           0        3.536444    1.663168    0.443768
     79          1           0       -0.585717    0.661526    0.498299
 ---------------------------------------------------------------------

 SCF Done:  E(RB3LYP) =  -1778.41749045     A.U. after   14 cycles

 The electronic state is 1-A.
 Alpha  occ. eigenvalues --  -19.04153 -19.04145 -19.02697 -19.01927 -19.01561
 Alpha  occ. eigenvalues --  -19.00377 -18.99335 -18.98988 -18.97292 -14.30783
 Alpha  occ. eigenvalues --  -14.29629 -14.24706 -14.23821 -14.23243 -10.21714
 Alpha  occ. eigenvalues --  -10.20577 -10.19456 -10.18705 -10.17855 -10.17423
 Alpha  occ. eigenvalues --  -10.15795 -10.15009 -10.13808 -10.13047 -10.11629
 Alpha  occ. eigenvalues --  -10.11609 -10.11458 -10.10891 -10.10308 -10.09926
 Alpha  occ. eigenvalues --  -10.09648 -10.09279 -10.08397 -10.08360 -10.07034
 Alpha  occ. eigenvalues --   -0.98848  -0.98405  -0.98014  -0.95049  -0.94183
 Alpha  occ. eigenvalues --   -0.93646  -0.91898  -0.91640  -0.89263  -0.87496
 Alpha  occ. eigenvalues --   -0.84460  -0.83371  -0.82490  -0.82111  -0.73965
 Alpha  occ. eigenvalues --   -0.70200  -0.69500  -0.68371  -0.66702  -0.65991
 Alpha  occ. eigenvalues --   -0.65797  -0.61442  -0.60223  -0.59626  -0.59522
 Alpha  occ. eigenvalues --   -0.58923  -0.58579  -0.57239  -0.55463  -0.54705
 Alpha  occ. eigenvalues --   -0.49981  -0.49856  -0.49031  -0.48856  -0.47599
 Alpha  occ. eigenvalues --   -0.46600  -0.44474  -0.43603  -0.42759  -0.42329
 Alpha  occ. eigenvalues --   -0.41958  -0.41181  -0.40897  -0.40542  -0.39727
 Alpha  occ. eigenvalues --   -0.39552  -0.39279  -0.39109  -0.38496  -0.38187
 Alpha  occ. eigenvalues --   -0.37982  -0.37663  -0.37643  -0.37263  -0.37180
 Alpha  occ. eigenvalues --   -0.36912  -0.36890  -0.35919  -0.35683  -0.35485
 Alpha  occ. eigenvalues --   -0.34074  -0.33929  -0.33430  -0.33229  -0.33125
 Alpha  occ. eigenvalues --   -0.32616  -0.32169  -0.32071  -0.31969  -0.31775
 Alpha  occ. eigenvalues --   -0.31322  -0.30914  -0.30560  -0.30449  -0.30319
 Alpha  occ. eigenvalues --   -0.30300  -0.30201  -0.29940  -0.29487  -0.29412
 Alpha  occ. eigenvalues --   -0.29068  -0.28943  -0.27665  -0.27288  -0.26632
 Alpha  occ. eigenvalues --   -0.26225  -0.25579  -0.25561  -0.25185  -0.22210
 Alpha  occ. eigenvalues --   -0.21623  -0.20917  -0.19925  -0.19359  -0.18963
 Alpha  occ. eigenvalues --   -0.18747  -0.17924  -0.17878  -0.17055  -0.17011
 Alpha  occ. eigenvalues --   -0.16506  -0.16308  -0.16038  -0.15777
 Alpha virt. eigenvalues --    0.04898   0.05857   0.06447   0.07081   0.07403
 Alpha virt. eigenvalues --    0.07658   0.07811   0.08357   0.08486   0.08548
 Alpha virt. eigenvalues --    0.09245   0.09378   0.09560   0.09783   0.10069

 Mulliken charges:
               1
     1  C    0.166208
     2  C    0.121590
     3  N   -0.328859
     4  C   -0.157969
     5  H    0.086215
     6  H    0.087665
     7  O   -0.579319
     8  C   -0.158829
     9  H    0.329594
    10  H    0.112922
    11  O   -0.365629
    12  H    0.141826
    13  H    0.105539
    14  H    0.093296
    15  H    0.106001
    16  C   -0.012767
    17  C   -0.099099
    18  O   -0.333652
    19  O   -0.710365
    20  H    0.110975
    21  H    0.119158
    22  H    0.115339
    23  C   -0.075978
    24  H    0.113029
    25  H    0.099441
    26  H    0.139313
    27  N   -0.409915
    28  C    0.292486
    29  C   -0.134012
    30  N   -0.390303
    31  H    0.157959
    32  C    0.117270
    33  H    0.132543
    34  C   -0.394179
    35  C   -0.435060
    36  H    0.078180
    37  H    0.171032
    38  H    0.096426
    39  H    0.088989
    40  H    0.122052
    41  C   -0.237612
    42  C    0.300534
    43  H    0.111062
    44  H    0.094429
    45  H    0.092507
    46  N   -0.301238
    47  O   -0.565075
    48  C   -0.193457
    49  H    0.345654
    50  H    0.103646
    51  H    0.090116
    52  H    0.117694
    53  C    0.545008
    54  C   -0.024792
    55  O   -0.601132
    56  O   -0.694319
    57  C   -0.377891
    58  H    0.083989
    59  H    0.088099
    60  H    0.091075
    61  H    0.097557
    62  H    0.107306
    63  N   -0.418987
    64  C   -0.188369
    65  C    0.358261
    66  H    0.332988
    67  H    0.123749
    68  H    0.093855
    69  H    0.132584
    70  C   -0.308052
    71  O   -0.535300
    72  H    0.106365
    73  H    0.126051
    74  H    0.110056
    75  O   -0.475693
    76  H    0.206740
    77  H    0.276952
    78  H    0.507869
    79  H    0.558659
 Sum of Mulliken charges =  -1.00000

 Dipole moment (field-independent basis, Debye):
    X=              5.8003    Y=              4.1917    Z=              5.5129  Tot=              9.0336
 Quadrupole moment (field-independent basis, Debye-Ang):
   XX=           -386.6195   YY=           -298.1196   ZZ=           -237.8385
   XY=              1.7021   XZ=             -0.9147   YZ=              1.2690

 Normal termination of Gaussian 09 at Thu Aug 27 10:05:03 2020.
