 Gaussian 16, Revision C.01,
 Gaussian 16:  ES64L-G16RevC.01  3-Jul-2019

 --------------------------------------------------------------
 #p freq=noraman scrf=(iefpcm,solvent=ethanol) b3lyp/6-31g(d,p)
 --------------------------------------------------------------

 -------------------
 Title Card Required
 -------------------
 Symbolic Z-matrix:
 Charge =  0 Multiplicity = 1

                         Standard orientation:
 ---------------------------------------------------------------------
 Center     Atomic      Atomic             Coordinates (Angstroms)
 Number     Number       Type             X           Y           Z
 ---------------------------------------------------------------------
      1          6           0       -1.224982   -0.221845    0.000013
      2          1           0       -1.297761   -0.858905   -0.887158
      3          1           0       -1.297737   -0.858917    0.887178
      4          1           0       -2.074089    0.468615    0.000031
      5          6           0        0.085234    0.547134    0.000002
      6          1           0        0.138995    1.198478    0.885861
      7          1           0        0.138983    1.198473   -0.885861
      8          8           0        1.155737   -0.399706   -0.000003
      9          1           0        1.984203    0.098171   -0.000113
 ---------------------------------------------------------------------

 SCF Done:  E(RB3LYP) =  -155.050602475     A.U. after   10 cycles

 The electronic state is 1-A.
 Alpha  occ. eigenvalues --  -19.13958 -10.22728 -10.17320  -1.00924  -0.74387
 Alpha  occ. eigenvalues --   -0.60537  -0.50847  -0.45843  -0.39701  -0.37835
 Alpha  occ. eigenvalues --   -0.36147  -0.32813  -0.26474
 Alpha virt. eigenvalues --    0.08569   0.12055   0.15863   0.16553   0.17702
 Alpha virt. eigenvalues --    0.19950   0.21379   0.23949   0.52314   0.55201
 Alpha virt. eigenvalues --    0.55602   0.57536   0.66495   0.66724   0.77887

 Mulliken charges:
               1
     1  C   -0.326875
     2  H    0.113139
     3  H    0.113139
     4  H    0.110850
     5  C    0.054264
     6  H    0.090614
     7  H    0.090617
     8  O   -0.570600
     9  H    0.324854
 Sum of Mulliken charges =   0.00000

 Dipole moment (field-independent basis, Debye):
    X=              0.2496    Y=              1.8367    Z=             -0.0002  Tot=              1.8536
 Quadrupole moment (field-independent basis, Debye-Ang):
   XX=            -16.3910   YY=            -20.2978   ZZ=            -19.8875
   XY=              2.0119   XZ=             -0.0005   YZ=             -0.0001

  Exact polarizability:      34.731       0.335      31.248      -0.000      -0.000      29.258
 Approx polarizability:      35.848      -0.657      34.469      -0.000      -0.000      31.641

                      1                      2                      3
                      A                      A                      A
 Frequencies --    247.9322               284.0878               416.5263
 Red. masses --      1.1487                 1.0703                 2.6376
 Frc consts  --      0.0416                 0.0509                 0.2696
 IR Inten    --     97.4875                77.3630                14.8063

                      4                      5                      6
                      A                      A                      A
 Frequencies --    821.7152               903.1115              1034.0472
 Red. masses --      1.0797                 2.2179                 2.2300
 Frc consts  --      0.4295                 1.0658                 1.4049
 IR Inten    --      0.0696                16.3093                78.9260

                      7                      8                      9
                      A                      A                      A
 Frequencies --   1110.0720              1186.3272              1274.3090
 Red. masses --      2.2524                 1.5219                 1.2238
 Frc consts  --      1.6353                 1.2620                 1.1709
 IR Inten    --     37.5087                 7.6651               107.2021

                     10                     11                     12
                      A                      A                      A
 Frequencies --   1301.7510              1409.5355              1466.7938
 Red. masses --      1.1103                 1.2358                 1.4401
 Frc consts  --      1.1085                 1.4466                 1.8255
 IR Inten    --      0.0020                 1.0374                19.9738

                     13                     14                     15
                      A                      A                      A
 Frequencies --   1490.0123              1504.8178              1540.8675
 Red. masses --      1.0405                 1.0528                 1.0872
 Frc consts  --      1.3611                 1.4047                 1.5209
 IR Inten    --      6.5002                 2.4780                 2.6781

                     16                     17                     18
                      A                      A                      A
 Frequencies --   2987.0292              3014.3861              3047.4390
 Red. masses --      1.0557                 1.1075                 1.0353
 Frc consts  --      5.5496                 5.9292                 5.6647
 IR Inten    --     91.3165                93.3911                22.1137

                     19                     20                     21
                      A                      A                      A
 Frequencies --   3121.2192              3124.6395              3812.5567
 Red. masses --      1.1037                 1.1025                 1.0665
 Frc consts  --      6.3352                 6.3419                 9.1334
 IR Inten    --     56.2671                41.4004                29.3492

 - Thermochemistry -
 -------------------
 Temperature   298.150 Kelvin.  Pressure   1.00000 Atm.
 Atom     1 has atomic number  6 and mass  12.00000

 Molecular mass:    46.04186 amu.
 Principal axes and moments of inertia in atomic units:
                           1         2         3
     Eigenvalues --    51.47199 193.95849 222.80255
           X            0.99908   0.04277   0.00001
           Y           -0.04277   0.99908   0.00000
           Z           -0.00001  -0.00001   1.00000
 This molecule is an asymmetric top.
 Rotational symmetry number  1.
 Rotational temperatures (Kelvin)      1.68274     0.44656     0.38875
 Rotational constants (GHZ):          35.06259     9.30478     8.10018
 Zero-point vibrational energy     209939.7 (Joules/Mol)
                                   50.17679 (Kcal/Mol)
 Warning -- explicit consideration of   3 degrees of freedom as
           vibrations may cause significant error
 Vibrational temperatures:    356.72   408.74   599.29  1182.26  1299.38
          (Kelvin)           1487.76  1597.15  1706.86  1833.45  1872.93
                             2028.01  2110.39  2143.80  2165.10  2216.96
                             4297.67  4337.03  4384.59  4490.74  4495.66
                             5485.42

 Zero-point correction=                           0.079962 (Hartree/Particle)
 Thermal correction to Energy=                    0.084268
 Thermal correction to Enthalpy=                  0.085212
 Thermal correction to Gibbs Free Energy=         0.054555
 Sum of electronic and zero-point Energies=           -154.970641
 Sum of electronic and thermal Energies=              -154.966335
 Sum of electronic and thermal Enthalpies=            -154.965390
 Sum of electronic and thermal Free Energies=         -154.996048

                     E (Thermal)             CV                S
                      KCal/Mol        Cal/Mol-Kelvin    Cal/Mol-Kelvin
 Total                   52.879             13.515             64.524
 Electronic               0.000              0.000              0.000
 Translational            0.889              2.981             37.406
 Rotational               0.889              2.981             22.324
 Vibrational             51.101              7.554              4.793
 Vibration     1          0.662              1.766              1.745
 Vibration     2          0.682              1.703              1.509
 Vibration     3          0.780              1.434              0.904

 Optimization completed.
    -- Stationary point found.
 Normal termination of Gaussian 16 at Fri Nov 13 17:04:31 2020.
